n -t * -s 0  -x 5 -y 5 -Z 0 -z 30  -v circle -c black
n -t * -s 1  -x 490 -y 285 -Z 0 -z 30  -v circle -c black
n -t * -s 2  -x 150 -y 240 -Z 0 -z 30  -v circle -c black
V -t * -v 1.0a5 -a 0
W -t * -x 500 -y 400
A -t * -n 1 -p 0 -o 0x7fffffff -c 30 -a 1
A -t * -h 1 -m 1073741823 -s 0
n -t 10.000000 -s 0 -x 5.000000 -y 5.000000 -U 2.121320 -V 2.121320 -T 115.494108
+ -t 10.000535000 -s 0 -d -1 -p AODV -e 106 -c 2 -a 0 -i 0 -k MAC 
- -t 10.000535000 -s 0 -d -1 -p AODV -e 106 -c 2 -a 0 -i 0 -k MAC
h -t 10.000535000 -s 0 -d -1 -p AODV -e 106 -c 2 -a 0 -i 0 -k MAC
+ -t 12.000635000 -s 0 -d -1 -p AODV -e 106 -c 2 -a 0 -i 0 -k MAC 
- -t 12.000635000 -s 0 -d -1 -p AODV -e 106 -c 2 -a 0 -i 0 -k MAC
h -t 12.000635000 -s 0 -d -1 -p AODV -e 106 -c 2 -a 0 -i 0 -k MAC
n -t 15.000000 -s 1 -x 490.000000 -y 285.000000 -U -5.000000 -V 0.000000 -T 89.000000
+ -t 16.000395000 -s 0 -d -1 -p AODV -e 106 -c 2 -a 0 -i 0 -k MAC 
- -t 16.000395000 -s 0 -d -1 -p AODV -e 106 -c 2 -a 0 -i 0 -k MAC
h -t 16.000395000 -s 0 -d -1 -p AODV -e 106 -c 2 -a 0 -i 0 -k MAC
+ -t 21.500235000 -s 0 -d -1 -p AODV -e 106 -c 2 -a 0 -i 0 -k MAC 
- -t 21.500235000 -s 0 -d -1 -p AODV -e 106 -c 2 -a 0 -i 0 -k MAC
h -t 21.500235000 -s 0 -d -1 -p AODV -e 106 -c 2 -a 0 -i 0 -k MAC
r -t 21.501083809 -s 2 -d -1 -p AODV -e 48 -c 2 -a 0 -i 0 -k MAC
+ -t 21.503889826 -s 2 -d -1 -p AODV -e 106 -c 2 -a 0 -i 0 -k MAC 
- -t 21.503889826 -s 2 -d -1 -p AODV -e 106 -c 2 -a 0 -i 0 -k MAC
h -t 21.503889826 -s 2 -d -1 -p AODV -e 106 -c 2 -a 0 -i 0 -k MAC
r -t 21.504738635 -s 0 -d -1 -p AODV -e 48 -c 2 -a 0 -i 0 -k MAC
d -t 29.000000000 -s 0 -d -1 -p cbr -e 230 -c 2 -a 0 -i 0 -k RTR
d -t 29.000000000 -s 0 -d -1 -p cbr -e 230 -c 2 -a 0 -i 1 -k RTR
d -t 29.000000000 -s 0 -d -1 -p cbr -e 230 -c 2 -a 0 -i 2 -k RTR
d -t 29.000000000 -s 0 -d -1 -p cbr -e 230 -c 2 -a 0 -i 3 -k RTR
d -t 29.000000000 -s 0 -d -1 -p cbr -e 230 -c 2 -a 0 -i 4 -k RTR
d -t 29.000000000 -s 0 -d -1 -p cbr -e 230 -c 2 -a 0 -i 5 -k RTR
d -t 29.000000000 -s 0 -d -1 -p cbr -e 230 -c 2 -a 0 -i 6 -k RTR
d -t 29.000000000 -s 0 -d -1 -p cbr -e 230 -c 2 -a 0 -i 7 -k RTR
d -t 29.000000000 -s 0 -d -1 -p cbr -e 230 -c 2 -a 0 -i 8 -k RTR
d -t 29.000000000 -s 0 -d -1 -p cbr -e 230 -c 2 -a 0 -i 9 -k RTR
d -t 29.000000000 -s 0 -d -1 -p cbr -e 230 -c 2 -a 0 -i 10 -k RTR
d -t 29.000000000 -s 0 -d -1 -p cbr -e 230 -c 2 -a 0 -i 11 -k RTR
d -t 29.000000000 -s 0 -d -1 -p cbr -e 230 -c 2 -a 0 -i 12 -k RTR
d -t 29.000000000 -s 0 -d -1 -p cbr -e 230 -c 2 -a 0 -i 13 -k RTR
d -t 29.000000000 -s 0 -d -1 -p cbr -e 230 -c 2 -a 0 -i 14 -k RTR
d -t 29.000000000 -s 0 -d -1 -p cbr -e 230 -c 2 -a 0 -i 15 -k RTR
d -t 29.000000000 -s 0 -d -1 -p cbr -e 230 -c 2 -a 0 -i 16 -k RTR
d -t 29.000000000 -s 0 -d -1 -p cbr -e 230 -c 2 -a 0 -i 17 -k RTR
d -t 29.000000000 -s 0 -d -1 -p cbr -e 230 -c 2 -a 0 -i 18 -k RTR
d -t 29.000000000 -s 0 -d -1 -p cbr -e 230 -c 2 -a 0 -i 19 -k RTR
+ -t 39.000315000 -s 0 -d -1 -p AODV -e 106 -c 2 -a 0 -i 0 -k MAC 
- -t 39.000315000 -s 0 -d -1 -p AODV -e 106 -c 2 -a 0 -i 0 -k MAC
h -t 39.000315000 -s 0 -d -1 -p AODV -e 106 -c 2 -a 0 -i 0 -k MAC
r -t 39.001163642 -s 2 -d -1 -p AODV -e 48 -c 2 -a 0 -i 0 -k MAC
+ -t 39.001851587 -s 2 -d -1 -p AODV -e 106 -c 2 -a 0 -i 0 -k MAC 
- -t 39.001851587 -s 2 -d -1 -p AODV -e 106 -c 2 -a 0 -i 0 -k MAC
h -t 39.001851587 -s 2 -d -1 -p AODV -e 106 -c 2 -a 0 -i 0 -k MAC
r -t 39.002700229 -s 0 -d -1 -p AODV -e 48 -c 2 -a 0 -i 0 -k MAC
r -t 39.002700336 -s 1 -d -1 -p AODV -e 48 -c 2 -a 0 -i 0 -k MAC
+ -t 39.003020336 -s 1 -d -1 -p ARP -e 86 -c 2 -a 0 -i 0 -k MAC 
- -t 39.003020336 -s 1 -d -1 -p ARP -e 86 -c 2 -a 0 -i 0 -k MAC
h -t 39.003020336 -s 1 -d -1 -p ARP -e 86 -c 2 -a 0 -i 0 -k MAC
r -t 39.003709084 -s 2 -d -1 -p ARP -e 28 -c 2 -a 0 -i 0 -k MAC
+ -t 39.003859084 -s 2 -d -1 -p RTS -e 44 -c 2 -a 0 -i 0 -k MAC 
- -t 39.003859084 -s 2 -d -1 -p RTS -e 44 -c 2 -a 0 -i 0 -k MAC
h -t 39.003859084 -s 2 -d -1 -p RTS -e 44 -c 2 -a 0 -i 0 -k MAC
r -t 39.004211833 -s 1 -d -1 -p RTS -e 44 -c 2 -a 0 -i 0 -k MAC
+ -t 39.004221833 -s 1 -d -1 -p CTS -e 38 -c 2 -a 0 -i 0 -k MAC 
- -t 39.004221833 -s 1 -d -1 -p CTS -e 38 -c 2 -a 0 -i 0 -k MAC
h -t 39.004221833 -s 1 -d -1 -p CTS -e 38 -c 2 -a 0 -i 0 -k MAC
r -t 39.004526581 -s 2 -d -1 -p CTS -e 38 -c 2 -a 0 -i 0 -k MAC
+ -t 39.004536581 -s 2 -d -1 -p ARP -e 86 -c 2 -a 0 -i 0 -k MAC 
- -t 39.004536581 -s 2 -d -1 -p ARP -e 86 -c 2 -a 0 -i 0 -k MAC
h -t 39.004536581 -s 2 -d -1 -p ARP -e 86 -c 2 -a 0 -i 0 -k MAC
r -t 39.005225330 -s 1 -d -1 -p ARP -e 28 -c 2 -a 0 -i 0 -k MAC
+ -t 39.005235330 -s 1 -d -1 -p ACK -e 38 -c 2 -a 0 -i 0 -k MAC 
- -t 39.005235330 -s 1 -d -1 -p ACK -e 38 -c 2 -a 0 -i 0 -k MAC
h -t 39.005235330 -s 1 -d -1 -p ACK -e 38 -c 2 -a 0 -i 0 -k MAC
r -t 39.005540078 -s 2 -d -1 -p ACK -e 38 -c 2 -a 0 -i 0 -k MAC
+ -t 39.005649330 -s 1 -d -1 -p RTS -e 44 -c 2 -a 0 -i 0 -k MAC 
- -t 39.005649330 -s 1 -d -1 -p RTS -e 44 -c 2 -a 0 -i 0 -k MAC
h -t 39.005649330 -s 1 -d -1 -p RTS -e 44 -c 2 -a 0 -i 0 -k MAC
r -t 39.006002078 -s 2 -d -1 -p RTS -e 44 -c 2 -a 0 -i 0 -k MAC
+ -t 39.006012078 -s 2 -d -1 -p CTS -e 38 -c 2 -a 0 -i 0 -k MAC 
- -t 39.006012078 -s 2 -d -1 -p CTS -e 38 -c 2 -a 0 -i 0 -k MAC
h -t 39.006012078 -s 2 -d -1 -p CTS -e 38 -c 2 -a 0 -i 0 -k MAC
r -t 39.006316826 -s 1 -d -1 -p CTS -e 38 -c 2 -a 0 -i 0 -k MAC
+ -t 39.006326826 -s 1 -d 2 -p AODV -e 102 -c 2 -a 0 -i 0 -k MAC 
- -t 39.006326826 -s 1 -d 2 -p AODV -e 102 -c 2 -a 0 -i 0 -k MAC
h -t 39.006326826 -s 1 -d 2 -p AODV -e 102 -c 2 -a 0 -i 0 -k MAC
r -t 39.007143575 -s 2 -d 2 -p AODV -e 44 -c 2 -a 0 -i 0 -k MAC
+ -t 39.007153575 -s 2 -d -1 -p ACK -e 38 -c 2 -a 0 -i 0 -k MAC 
- -t 39.007153575 -s 2 -d -1 -p ACK -e 38 -c 2 -a 0 -i 0 -k MAC
h -t 39.007153575 -s 2 -d -1 -p ACK -e 38 -c 2 -a 0 -i 0 -k MAC
r -t 39.007458323 -s 1 -d -1 -p ACK -e 38 -c 2 -a 0 -i 0 -k MAC
+ -t 39.007947575 -s 2 -d -1 -p ARP -e 86 -c 2 -a 0 -i 0 -k MAC 
- -t 39.007947575 -s 2 -d -1 -p ARP -e 86 -c 2 -a 0 -i 0 -k MAC
h -t 39.007947575 -s 2 -d -1 -p ARP -e 86 -c 2 -a 0 -i 0 -k MAC
r -t 39.008636217 -s 0 -d -1 -p ARP -e 28 -c 2 -a 0 -i 0 -k MAC
r -t 39.008636323 -s 1 -d -1 -p ARP -e 28 -c 2 -a 0 -i 0 -k MAC
+ -t 39.008891217 -s 0 -d -1 -p RTS -e 44 -c 2 -a 0 -i 0 -k MAC 
- -t 39.008891217 -s 0 -d -1 -p RTS -e 44 -c 2 -a 0 -i 0 -k MAC
h -t 39.008891217 -s 0 -d -1 -p RTS -e 44 -c 2 -a 0 -i 0 -k MAC
r -t 39.009243858 -s 2 -d -1 -p RTS -e 44 -c 2 -a 0 -i 0 -k MAC
+ -t 39.009253858 -s 2 -d -1 -p CTS -e 38 -c 2 -a 0 -i 0 -k MAC 
- -t 39.009253858 -s 2 -d -1 -p CTS -e 38 -c 2 -a 0 -i 0 -k MAC
h -t 39.009253858 -s 2 -d -1 -p CTS -e 38 -c 2 -a 0 -i 0 -k MAC
r -t 39.009558500 -s 0 -d -1 -p CTS -e 38 -c 2 -a 0 -i 0 -k MAC
+ -t 39.009568500 -s 0 -d -1 -p ARP -e 86 -c 2 -a 0 -i 0 -k MAC 
- -t 39.009568500 -s 0 -d -1 -p ARP -e 86 -c 2 -a 0 -i 0 -k MAC
h -t 39.009568500 -s 0 -d -1 -p ARP -e 86 -c 2 -a 0 -i 0 -k MAC
r -t 39.010257142 -s 2 -d -1 -p ARP -e 28 -c 2 -a 0 -i 0 -k MAC
+ -t 39.010267142 -s 2 -d -1 -p ACK -e 38 -c 2 -a 0 -i 0 -k MAC 
- -t 39.010267142 -s 2 -d -1 -p ACK -e 38 -c 2 -a 0 -i 0 -k MAC
h -t 39.010267142 -s 2 -d -1 -p ACK -e 38 -c 2 -a 0 -i 0 -k MAC
r -t 39.010571783 -s 0 -d -1 -p ACK -e 38 -c 2 -a 0 -i 0 -k MAC
+ -t 39.010741142 -s 2 -d -1 -p RTS -e 44 -c 2 -a 0 -i 0 -k MAC 
- -t 39.010741142 -s 2 -d -1 -p RTS -e 44 -c 2 -a 0 -i 0 -k MAC
h -t 39.010741142 -s 2 -d -1 -p RTS -e 44 -c 2 -a 0 -i 0 -k MAC
r -t 39.011093783 -s 0 -d -1 -p RTS -e 44 -c 2 -a 0 -i 0 -k MAC
+ -t 39.011103783 -s 0 -d -1 -p CTS -e 38 -c 2 -a 0 -i 0 -k MAC 
- -t 39.011103783 -s 0 -d -1 -p CTS -e 38 -c 2 -a 0 -i 0 -k MAC
h -t 39.011103783 -s 0 -d -1 -p CTS -e 38 -c 2 -a 0 -i 0 -k MAC
r -t 39.011408425 -s 2 -d -1 -p CTS -e 38 -c 2 -a 0 -i 0 -k MAC
+ -t 39.011418425 -s 2 -d 0 -p AODV -e 102 -c 2 -a 0 -i 0 -k MAC 
- -t 39.011418425 -s 2 -d 0 -p AODV -e 102 -c 2 -a 0 -i 0 -k MAC
h -t 39.011418425 -s 2 -d 0 -p AODV -e 102 -c 2 -a 0 -i 0 -k MAC
r -t 39.012235066 -s 0 -d 0 -p AODV -e 44 -c 2 -a 0 -i 0 -k MAC
+ -t 39.012245066 -s 0 -d -1 -p ACK -e 38 -c 2 -a 0 -i 0 -k MAC 
- -t 39.012245066 -s 0 -d -1 -p ACK -e 38 -c 2 -a 0 -i 0 -k MAC
h -t 39.012245066 -s 0 -d -1 -p ACK -e 38 -c 2 -a 0 -i 0 -k MAC
r -t 39.012549708 -s 2 -d -1 -p ACK -e 38 -c 2 -a 0 -i 0 -k MAC
+ -t 39.012719066 -s 0 -d -1 -p RTS -e 44 -c 2 -a 0 -i 0 -k MAC 
- -t 39.012719066 -s 0 -d -1 -p RTS -e 44 -c 2 -a 0 -i 0 -k MAC
h -t 39.012719066 -s 0 -d -1 -p RTS -e 44 -c 2 -a 0 -i 0 -k MAC
r -t 39.013071708 -s 2 -d -1 -p RTS -e 44 -c 2 -a 0 -i 0 -k MAC
+ -t 39.013081708 -s 2 -d -1 -p CTS -e 38 -c 2 -a 0 -i 0 -k MAC 
- -t 39.013081708 -s 2 -d -1 -p CTS -e 38 -c 2 -a 0 -i 0 -k MAC
h -t 39.013081708 -s 2 -d -1 -p CTS -e 38 -c 2 -a 0 -i 0 -k MAC
r -t 39.013386350 -s 0 -d -1 -p CTS -e 38 -c 2 -a 0 -i 0 -k MAC
+ -t 39.013396350 -s 0 -d 2 -p cbr -e 288 -c 2 -a 0 -i 20 -k MAC 
- -t 39.013396350 -s 0 -d 2 -p cbr -e 288 -c 2 -a 0 -i 20 -k MAC
h -t 39.013396350 -s 0 -d 2 -p cbr -e 288 -c 2 -a 0 -i 20 -k MAC
r -t 39.015700991 -s 2 -d 2 -p cbr -e 230 -c 2 -a 0 -i 20 -k MAC
+ -t 39.015710991 -s 2 -d -1 -p ACK -e 38 -c 2 -a 0 -i 0 -k MAC 
- -t 39.015710991 -s 2 -d -1 -p ACK -e 38 -c 2 -a 0 -i 0 -k MAC
h -t 39.015710991 -s 2 -d -1 -p ACK -e 38 -c 2 -a 0 -i 0 -k MAC
r -t 39.016015633 -s 0 -d -1 -p ACK -e 38 -c 2 -a 0 -i 0 -k MAC
+ -t 39.016304991 -s 2 -d -1 -p RTS -e 44 -c 2 -a 0 -i 0 -k MAC 
- -t 39.016304991 -s 2 -d -1 -p RTS -e 44 -c 2 -a 0 -i 0 -k MAC
h -t 39.016304991 -s 2 -d -1 -p RTS -e 44 -c 2 -a 0 -i 0 -k MAC
r -t 39.016657740 -s 1 -d -1 -p RTS -e 44 -c 2 -a 0 -i 0 -k MAC
+ -t 39.016667740 -s 1 -d -1 -p CTS -e 38 -c 2 -a 0 -i 0 -k MAC 
- -t 39.016667740 -s 1 -d -1 -p CTS -e 38 -c 2 -a 0 -i 0 -k MAC
h -t 39.016667740 -s 1 -d -1 -p CTS -e 38 -c 2 -a 0 -i 0 -k MAC
r -t 39.016972488 -s 2 -d -1 -p CTS -e 38 -c 2 -a 0 -i 0 -k MAC
+ -t 39.016982488 -s 2 -d 1 -p cbr -e 288 -c 2 -a 0 -i 20 -k MAC 
- -t 39.016982488 -s 2 -d 1 -p cbr -e 288 -c 2 -a 0 -i 20 -k MAC
h -t 39.016982488 -s 2 -d 1 -p cbr -e 288 -c 2 -a 0 -i 20 -k MAC
r -t 39.019287236 -s 1 -d 1 -p cbr -e 230 -c 2 -a 0 -i 20 -k MAC
+ -t 39.019297236 -s 1 -d -1 -p ACK -e 38 -c 2 -a 0 -i 0 -k MAC 
- -t 39.019297236 -s 1 -d -1 -p ACK -e 38 -c 2 -a 0 -i 0 -k MAC
h -t 39.019297236 -s 1 -d -1 -p ACK -e 38 -c 2 -a 0 -i 0 -k MAC
r -t 39.019601984 -s 2 -d -1 -p ACK -e 38 -c 2 -a 0 -i 0 -k MAC
+ -t 39.022915066 -s 0 -d -1 -p RTS -e 44 -c 2 -a 0 -i 0 -k MAC 
- -t 39.022915066 -s 0 -d -1 -p RTS -e 44 -c 2 -a 0 -i 0 -k MAC
h -t 39.022915066 -s 0 -d -1 -p RTS -e 44 -c 2 -a 0 -i 0 -k MAC
r -t 39.023267708 -s 2 -d -1 -p RTS -e 44 -c 2 -a 0 -i 0 -k MAC
+ -t 39.023277708 -s 2 -d -1 -p CTS -e 38 -c 2 -a 0 -i 0 -k MAC 
- -t 39.023277708 -s 2 -d -1 -p CTS -e 38 -c 2 -a 0 -i 0 -k MAC
h -t 39.023277708 -s 2 -d -1 -p CTS -e 38 -c 2 -a 0 -i 0 -k MAC
r -t 39.023582349 -s 0 -d -1 -p CTS -e 38 -c 2 -a 0 -i 0 -k MAC
+ -t 39.023592349 -s 0 -d 2 -p cbr -e 288 -c 2 -a 0 -i 21 -k MAC 
- -t 39.023592349 -s 0 -d 2 -p cbr -e 288 -c 2 -a 0 -i 21 -k MAC
h -t 39.023592349 -s 0 -d 2 -p cbr -e 288 -c 2 -a 0 -i 21 -k MAC
r -t 39.025896991 -s 2 -d 2 -p cbr -e 230 -c 2 -a 0 -i 21 -k MAC
+ -t 39.025906991 -s 2 -d -1 -p ACK -e 38 -c 2 -a 0 -i 0 -k MAC 
- -t 39.025906991 -s 2 -d -1 -p ACK -e 38 -c 2 -a 0 -i 0 -k MAC
h -t 39.025906991 -s 2 -d -1 -p ACK -e 38 -c 2 -a 0 -i 0 -k MAC
r -t 39.026211632 -s 0 -d -1 -p ACK -e 38 -c 2 -a 0 -i 0 -k MAC
+ -t 39.026660991 -s 2 -d -1 -p RTS -e 44 -c 2 -a 0 -i 0 -k MAC 
- -t 39.026660991 -s 2 -d -1 -p RTS -e 44 -c 2 -a 0 -i 0 -k MAC
h -t 39.026660991 -s 2 -d -1 -p RTS -e 44 -c 2 -a 0 -i 0 -k MAC
r -t 39.027013739 -s 1 -d -1 -p RTS -e 44 -c 2 -a 0 -i 0 -k MAC
+ -t 39.027023739 -s 1 -d -1 -p CTS -e 38 -c 2 -a 0 -i 0 -k MAC 
- -t 39.027023739 -s 1 -d -1 -p CTS -e 38 -c 2 -a 0 -i 0 -k MAC
h -t 39.027023739 -s 1 -d -1 -p CTS -e 38 -c 2 -a 0 -i 0 -k MAC
r -t 39.027328487 -s 2 -d -1 -p CTS -e 38 -c 2 -a 0 -i 0 -k MAC
+ -t 39.027338487 -s 2 -d 1 -p cbr -e 288 -c 2 -a 0 -i 21 -k MAC 
- -t 39.027338487 -s 2 -d 1 -p cbr -e 288 -c 2 -a 0 -i 21 -k MAC
h -t 39.027338487 -s 2 -d 1 -p cbr -e 288 -c 2 -a 0 -i 21 -k MAC
r -t 39.029643235 -s 1 -d 1 -p cbr -e 230 -c 2 -a 0 -i 21 -k MAC
+ -t 39.029653235 -s 1 -d -1 -p ACK -e 38 -c 2 -a 0 -i 0 -k MAC 
- -t 39.029653235 -s 1 -d -1 -p ACK -e 38 -c 2 -a 0 -i 0 -k MAC
h -t 39.029653235 -s 1 -d -1 -p ACK -e 38 -c 2 -a 0 -i 0 -k MAC
r -t 39.029957983 -s 2 -d -1 -p ACK -e 38 -c 2 -a 0 -i 0 -k MAC
+ -t 39.032375066 -s 0 -d -1 -p RTS -e 44 -c 2 -a 0 -i 0 -k MAC 
- -t 39.032375066 -s 0 -d -1 -p RTS -e 44 -c 2 -a 0 -i 0 -k MAC
h -t 39.032375066 -s 0 -d -1 -p RTS -e 44 -c 2 -a 0 -i 0 -k MAC
r -t 39.032727708 -s 2 -d -1 -p RTS -e 44 -c 2 -a 0 -i 0 -k MAC
+ -t 39.032737708 -s 2 -d -1 -p CTS -e 38 -c 2 -a 0 -i 0 -k MAC 
- -t 39.032737708 -s 2 -d -1 -p CTS -e 38 -c 2 -a 0 -i 0 -k MAC
h -t 39.032737708 -s 2 -d -1 -p CTS -e 38 -c 2 -a 0 -i 0 -k MAC
r -t 39.033042349 -s 0 -d -1 -p CTS -e 38 -c 2 -a 0 -i 0 -k MAC
+ -t 39.033052349 -s 0 -d 2 -p cbr -e 288 -c 2 -a 0 -i 22 -k MAC 
- -t 39.033052349 -s 0 -d 2 -p cbr -e 288 -c 2 -a 0 -i 22 -k MAC
h -t 39.033052349 -s 0 -d 2 -p cbr -e 288 -c 2 -a 0 -i 22 -k MAC
r -t 39.035356991 -s 2 -d 2 -p cbr -e 230 -c 2 -a 0 -i 22 -k MAC
+ -t 39.035366991 -s 2 -d -1 -p ACK -e 38 -c 2 -a 0 -i 0 -k MAC 
- -t 39.035366991 -s 2 -d -1 -p ACK -e 38 -c 2 -a 0 -i 0 -k MAC
h -t 39.035366991 -s 2 -d -1 -p ACK -e 38 -c 2 -a 0 -i 0 -k MAC
r -t 39.035671632 -s 0 -d -1 -p ACK -e 38 -c 2 -a 0 -i 0 -k MAC
+ -t 39.036020991 -s 2 -d -1 -p RTS -e 44 -c 2 -a 0 -i 0 -k MAC 
- -t 39.036020991 -s 2 -d -1 -p RTS -e 44 -c 2 -a 0 -i 0 -k MAC
h -t 39.036020991 -s 2 -d -1 -p RTS -e 44 -c 2 -a 0 -i 0 -k MAC
r -t 39.036373739 -s 1 -d -1 -p RTS -e 44 -c 2 -a 0 -i 0 -k MAC
+ -t 39.036383739 -s 1 -d -1 -p CTS -e 38 -c 2 -a 0 -i 0 -k MAC 
- -t 39.036383739 -s 1 -d -1 -p CTS -e 38 -c 2 -a 0 -i 0 -k MAC
h -t 39.036383739 -s 1 -d -1 -p CTS -e 38 -c 2 -a 0 -i 0 -k MAC
r -t 39.036688487 -s 2 -d -1 -p CTS -e 38 -c 2 -a 0 -i 0 -k MAC
+ -t 39.036698487 -s 2 -d 1 -p cbr -e 288 -c 2 -a 0 -i 22 -k MAC 
- -t 39.036698487 -s 2 -d 1 -p cbr -e 288 -c 2 -a 0 -i 22 -k MAC
h -t 39.036698487 -s 2 -d 1 -p cbr -e 288 -c 2 -a 0 -i 22 -k MAC
r -t 39.039003235 -s 1 -d 1 -p cbr -e 230 -c 2 -a 0 -i 22 -k MAC
+ -t 39.039013235 -s 1 -d -1 -p ACK -e 38 -c 2 -a 0 -i 0 -k MAC 
- -t 39.039013235 -s 1 -d -1 -p ACK -e 38 -c 2 -a 0 -i 0 -k MAC
h -t 39.039013235 -s 1 -d -1 -p ACK -e 38 -c 2 -a 0 -i 0 -k MAC
r -t 39.039317982 -s 2 -d -1 -p ACK -e 38 -c 2 -a 0 -i 0 -k MAC
+ -t 39.042415066 -s 0 -d -1 -p RTS -e 44 -c 2 -a 0 -i 0 -k MAC 
- -t 39.042415066 -s 0 -d -1 -p RTS -e 44 -c 2 -a 0 -i 0 -k MAC
h -t 39.042415066 -s 0 -d -1 -p RTS -e 44 -c 2 -a 0 -i 0 -k MAC
r -t 39.042767708 -s 2 -d -1 -p RTS -e 44 -c 2 -a 0 -i 0 -k MAC
+ -t 39.042777708 -s 2 -d -1 -p CTS -e 38 -c 2 -a 0 -i 0 -k MAC 
- -t 39.042777708 -s 2 -d -1 -p CTS -e 38 -c 2 -a 0 -i 0 -k MAC
h -t 39.042777708 -s 2 -d -1 -p CTS -e 38 -c 2 -a 0 -i 0 -k MAC
r -t 39.043082349 -s 0 -d -1 -p CTS -e 38 -c 2 -a 0 -i 0 -k MAC
+ -t 39.043092349 -s 0 -d 2 -p cbr -e 288 -c 2 -a 0 -i 23 -k MAC 
- -t 39.043092349 -s 0 -d 2 -p cbr -e 288 -c 2 -a 0 -i 23 -k MAC
h -t 39.043092349 -s 0 -d 2 -p cbr -e 288 -c 2 -a 0 -i 23 -k MAC
r -t 39.045396990 -s 2 -d 2 -p cbr -e 230 -c 2 -a 0 -i 23 -k MAC
+ -t 39.045406990 -s 2 -d -1 -p ACK -e 38 -c 2 -a 0 -i 0 -k MAC 
- -t 39.045406990 -s 2 -d -1 -p ACK -e 38 -c 2 -a 0 -i 0 -k MAC
h -t 39.045406990 -s 2 -d -1 -p ACK -e 38 -c 2 -a 0 -i 0 -k MAC
r -t 39.045711632 -s 0 -d -1 -p ACK -e 38 -c 2 -a 0 -i 0 -k MAC
+ -t 39.046040990 -s 2 -d -1 -p RTS -e 44 -c 2 -a 0 -i 0 -k MAC 
- -t 39.046040990 -s 2 -d -1 -p RTS -e 44 -c 2 -a 0 -i 0 -k MAC
h -t 39.046040990 -s 2 -d -1 -p RTS -e 44 -c 2 -a 0 -i 0 -k MAC
r -t 39.046393738 -s 1 -d -1 -p RTS -e 44 -c 2 -a 0 -i 0 -k MAC
+ -t 39.046403738 -s 1 -d -1 -p CTS -e 38 -c 2 -a 0 -i 0 -k MAC 
- -t 39.046403738 -s 1 -d -1 -p CTS -e 38 -c 2 -a 0 -i 0 -k MAC
h -t 39.046403738 -s 1 -d -1 -p CTS -e 38 -c 2 -a 0 -i 0 -k MAC
r -t 39.046708486 -s 2 -d -1 -p CTS -e 38 -c 2 -a 0 -i 0 -k MAC
+ -t 39.046718486 -s 2 -d 1 -p cbr -e 288 -c 2 -a 0 -i 23 -k MAC 
- -t 39.046718486 -s 2 -d 1 -p cbr -e 288 -c 2 -a 0 -i 23 -k MAC
h -t 39.046718486 -s 2 -d 1 -p cbr -e 288 -c 2 -a 0 -i 23 -k MAC
r -t 39.049023234 -s 1 -d 1 -p cbr -e 230 -c 2 -a 0 -i 23 -k MAC
+ -t 39.049033234 -s 1 -d -1 -p ACK -e 38 -c 2 -a 0 -i 0 -k MAC 
- -t 39.049033234 -s 1 -d -1 -p ACK -e 38 -c 2 -a 0 -i 0 -k MAC
h -t 39.049033234 -s 1 -d -1 -p ACK -e 38 -c 2 -a 0 -i 0 -k MAC
r -t 39.049337981 -s 2 -d -1 -p ACK -e 38 -c 2 -a 0 -i 0 -k MAC
+ -t 39.052855066 -s 0 -d -1 -p RTS -e 44 -c 2 -a 0 -i 0 -k MAC 
- -t 39.052855066 -s 0 -d -1 -p RTS -e 44 -c 2 -a 0 -i 0 -k MAC
h -t 39.052855066 -s 0 -d -1 -p RTS -e 44 -c 2 -a 0 -i 0 -k MAC
r -t 39.053207708 -s 2 -d -1 -p RTS -e 44 -c 2 -a 0 -i 0 -k MAC
+ -t 39.053217708 -s 2 -d -1 -p CTS -e 38 -c 2 -a 0 -i 0 -k MAC 
- -t 39.053217708 -s 2 -d -1 -p CTS -e 38 -c 2 -a 0 -i 0 -k MAC
h -t 39.053217708 -s 2 -d -1 -p CTS -e 38 -c 2 -a 0 -i 0 -k MAC
r -t 39.053522349 -s 0 -d -1 -p CTS -e 38 -c 2 -a 0 -i 0 -k MAC
+ -t 39.053532349 -s 0 -d 2 -p cbr -e 288 -c 2 -a 0 -i 24 -k MAC 
- -t 39.053532349 -s 0 -d 2 -p cbr -e 288 -c 2 -a 0 -i 24 -k MAC
h -t 39.053532349 -s 0 -d 2 -p cbr -e 288 -c 2 -a 0 -i 24 -k MAC
r -t 39.055836990 -s 2 -d 2 -p cbr -e 230 -c 2 -a 0 -i 24 -k MAC
+ -t 39.055846990 -s 2 -d -1 -p ACK -e 38 -c 2 -a 0 -i 0 -k MAC 
- -t 39.055846990 -s 2 -d -1 -p ACK -e 38 -c 2 -a 0 -i 0 -k MAC
h -t 39.055846990 -s 2 -d -1 -p ACK -e 38 -c 2 -a 0 -i 0 -k MAC
r -t 39.056151631 -s 0 -d -1 -p ACK -e 38 -c 2 -a 0 -i 0 -k MAC
+ -t 39.056420990 -s 2 -d -1 -p RTS -e 44 -c 2 -a 0 -i 0 -k MAC 
- -t 39.056420990 -s 2 -d -1 -p RTS -e 44 -c 2 -a 0 -i 0 -k MAC
h -t 39.056420990 -s 2 -d -1 -p RTS -e 44 -c 2 -a 0 -i 0 -k MAC
r -t 39.056773738 -s 1 -d -1 -p RTS -e 44 -c 2 -a 0 -i 0 -k MAC
+ -t 39.056783738 -s 1 -d -1 -p CTS -e 38 -c 2 -a 0 -i 0 -k MAC 
- -t 39.056783738 -s 1 -d -1 -p CTS -e 38 -c 2 -a 0 -i 0 -k MAC
h -t 39.056783738 -s 1 -d -1 -p CTS -e 38 -c 2 -a 0 -i 0 -k MAC
r -t 39.057088485 -s 2 -d -1 -p CTS -e 38 -c 2 -a 0 -i 0 -k MAC
+ -t 39.057098485 -s 2 -d 1 -p cbr -e 288 -c 2 -a 0 -i 24 -k MAC 
- -t 39.057098485 -s 2 -d 1 -p cbr -e 288 -c 2 -a 0 -i 24 -k MAC
h -t 39.057098485 -s 2 -d 1 -p cbr -e 288 -c 2 -a 0 -i 24 -k MAC
r -t 39.059403233 -s 1 -d 1 -p cbr -e 230 -c 2 -a 0 -i 24 -k MAC
+ -t 39.059413233 -s 1 -d -1 -p ACK -e 38 -c 2 -a 0 -i 0 -k MAC 
- -t 39.059413233 -s 1 -d -1 -p ACK -e 38 -c 2 -a 0 -i 0 -k MAC
h -t 39.059413233 -s 1 -d -1 -p ACK -e 38 -c 2 -a 0 -i 0 -k MAC
r -t 39.059717980 -s 2 -d -1 -p ACK -e 38 -c 2 -a 0 -i 0 -k MAC
+ -t 39.062395066 -s 0 -d -1 -p RTS -e 44 -c 2 -a 0 -i 0 -k MAC 
- -t 39.062395066 -s 0 -d -1 -p RTS -e 44 -c 2 -a 0 -i 0 -k MAC
h -t 39.062395066 -s 0 -d -1 -p RTS -e 44 -c 2 -a 0 -i 0 -k MAC
r -t 39.062747708 -s 2 -d -1 -p RTS -e 44 -c 2 -a 0 -i 0 -k MAC
+ -t 39.062757708 -s 2 -d -1 -p CTS -e 38 -c 2 -a 0 -i 0 -k MAC 
- -t 39.062757708 -s 2 -d -1 -p CTS -e 38 -c 2 -a 0 -i 0 -k MAC
h -t 39.062757708 -s 2 -d -1 -p CTS -e 38 -c 2 -a 0 -i 0 -k MAC
r -t 39.063062349 -s 0 -d -1 -p CTS -e 38 -c 2 -a 0 -i 0 -k MAC
+ -t 39.063072349 -s 0 -d 2 -p cbr -e 288 -c 2 -a 0 -i 25 -k MAC 
- -t 39.063072349 -s 0 -d 2 -p cbr -e 288 -c 2 -a 0 -i 25 -k MAC
h -t 39.063072349 -s 0 -d 2 -p cbr -e 288 -c 2 -a 0 -i 25 -k MAC
r -t 39.065376990 -s 2 -d 2 -p cbr -e 230 -c 2 -a 0 -i 25 -k MAC
+ -t 39.065386990 -s 2 -d -1 -p ACK -e 38 -c 2 -a 0 -i 0 -k MAC 
- -t 39.065386990 -s 2 -d -1 -p ACK -e 38 -c 2 -a 0 -i 0 -k MAC
h -t 39.065386990 -s 2 -d -1 -p ACK -e 38 -c 2 -a 0 -i 0 -k MAC
r -t 39.065691631 -s 0 -d -1 -p ACK -e 38 -c 2 -a 0 -i 0 -k MAC
+ -t 39.065860990 -s 2 -d -1 -p RTS -e 44 -c 2 -a 0 -i 0 -k MAC 
- -t 39.065860990 -s 2 -d -1 -p RTS -e 44 -c 2 -a 0 -i 0 -k MAC
h -t 39.065860990 -s 2 -d -1 -p RTS -e 44 -c 2 -a 0 -i 0 -k MAC
r -t 39.066213737 -s 1 -d -1 -p RTS -e 44 -c 2 -a 0 -i 0 -k MAC
+ -t 39.066223737 -s 1 -d -1 -p CTS -e 38 -c 2 -a 0 -i 0 -k MAC 
- -t 39.066223737 -s 1 -d -1 -p CTS -e 38 -c 2 -a 0 -i 0 -k MAC
h -t 39.066223737 -s 1 -d -1 -p CTS -e 38 -c 2 -a 0 -i 0 -k MAC
r -t 39.066528485 -s 2 -d -1 -p CTS -e 38 -c 2 -a 0 -i 0 -k MAC
+ -t 39.066538485 -s 2 -d 1 -p cbr -e 288 -c 2 -a 0 -i 25 -k MAC 
- -t 39.066538485 -s 2 -d 1 -p cbr -e 288 -c 2 -a 0 -i 25 -k MAC
h -t 39.066538485 -s 2 -d 1 -p cbr -e 288 -c 2 -a 0 -i 25 -k MAC
r -t 39.068843232 -s 1 -d 1 -p cbr -e 230 -c 2 -a 0 -i 25 -k MAC
+ -t 39.068853232 -s 1 -d -1 -p ACK -e 38 -c 2 -a 0 -i 0 -k MAC 
- -t 39.068853232 -s 1 -d -1 -p ACK -e 38 -c 2 -a 0 -i 0 -k MAC
h -t 39.068853232 -s 1 -d -1 -p ACK -e 38 -c 2 -a 0 -i 0 -k MAC
r -t 39.069157980 -s 2 -d -1 -p ACK -e 38 -c 2 -a 0 -i 0 -k MAC
+ -t 39.072615066 -s 0 -d -1 -p RTS -e 44 -c 2 -a 0 -i 0 -k MAC 
- -t 39.072615066 -s 0 -d -1 -p RTS -e 44 -c 2 -a 0 -i 0 -k MAC
h -t 39.072615066 -s 0 -d -1 -p RTS -e 44 -c 2 -a 0 -i 0 -k MAC
r -t 39.072967707 -s 2 -d -1 -p RTS -e 44 -c 2 -a 0 -i 0 -k MAC
+ -t 39.072977707 -s 2 -d -1 -p CTS -e 38 -c 2 -a 0 -i 0 -k MAC 
- -t 39.072977707 -s 2 -d -1 -p CTS -e 38 -c 2 -a 0 -i 0 -k MAC
h -t 39.072977707 -s 2 -d -1 -p CTS -e 38 -c 2 -a 0 -i 0 -k MAC
r -t 39.073282349 -s 0 -d -1 -p CTS -e 38 -c 2 -a 0 -i 0 -k MAC
+ -t 39.073292349 -s 0 -d 2 -p cbr -e 288 -c 2 -a 0 -i 26 -k MAC 
- -t 39.073292349 -s 0 -d 2 -p cbr -e 288 -c 2 -a 0 -i 26 -k MAC
h -t 39.073292349 -s 0 -d 2 -p cbr -e 288 -c 2 -a 0 -i 26 -k MAC
r -t 39.075596990 -s 2 -d 2 -p cbr -e 230 -c 2 -a 0 -i 26 -k MAC
+ -t 39.075606990 -s 2 -d -1 -p ACK -e 38 -c 2 -a 0 -i 0 -k MAC 
- -t 39.075606990 -s 2 -d -1 -p ACK -e 38 -c 2 -a 0 -i 0 -k MAC
h -t 39.075606990 -s 2 -d -1 -p ACK -e 38 -c 2 -a 0 -i 0 -k MAC
r -t 39.075911631 -s 0 -d -1 -p ACK -e 38 -c 2 -a 0 -i 0 -k MAC
+ -t 39.076140990 -s 2 -d -1 -p RTS -e 44 -c 2 -a 0 -i 0 -k MAC 
- -t 39.076140990 -s 2 -d -1 -p RTS -e 44 -c 2 -a 0 -i 0 -k MAC
h -t 39.076140990 -s 2 -d -1 -p RTS -e 44 -c 2 -a 0 -i 0 -k MAC
r -t 39.076493737 -s 1 -d -1 -p RTS -e 44 -c 2 -a 0 -i 0 -k MAC
+ -t 39.076503737 -s 1 -d -1 -p CTS -e 38 -c 2 -a 0 -i 0 -k MAC 
- -t 39.076503737 -s 1 -d -1 -p CTS -e 38 -c 2 -a 0 -i 0 -k MAC
h -t 39.076503737 -s 1 -d -1 -p CTS -e 38 -c 2 -a 0 -i 0 -k MAC
r -t 39.076808484 -s 2 -d -1 -p CTS -e 38 -c 2 -a 0 -i 0 -k MAC
+ -t 39.076818484 -s 2 -d 1 -p cbr -e 288 -c 2 -a 0 -i 26 -k MAC 
- -t 39.076818484 -s 2 -d 1 -p cbr -e 288 -c 2 -a 0 -i 26 -k MAC
h -t 39.076818484 -s 2 -d 1 -p cbr -e 288 -c 2 -a 0 -i 26 -k MAC
r -t 39.079123231 -s 1 -d 1 -p cbr -e 230 -c 2 -a 0 -i 26 -k MAC
+ -t 39.079133231 -s 1 -d -1 -p ACK -e 38 -c 2 -a 0 -i 0 -k MAC 
- -t 39.079133231 -s 1 -d -1 -p ACK -e 38 -c 2 -a 0 -i 0 -k MAC
h -t 39.079133231 -s 1 -d -1 -p ACK -e 38 -c 2 -a 0 -i 0 -k MAC
r -t 39.079437979 -s 2 -d -1 -p ACK -e 38 -c 2 -a 0 -i 0 -k MAC
+ -t 39.082335066 -s 0 -d -1 -p RTS -e 44 -c 2 -a 0 -i 0 -k MAC 
- -t 39.082335066 -s 0 -d -1 -p RTS -e 44 -c 2 -a 0 -i 0 -k MAC
h -t 39.082335066 -s 0 -d -1 -p RTS -e 44 -c 2 -a 0 -i 0 -k MAC
r -t 39.082687707 -s 2 -d -1 -p RTS -e 44 -c 2 -a 0 -i 0 -k MAC
+ -t 39.082697707 -s 2 -d -1 -p CTS -e 38 -c 2 -a 0 -i 0 -k MAC 
- -t 39.082697707 -s 2 -d -1 -p CTS -e 38 -c 2 -a 0 -i 0 -k MAC
h -t 39.082697707 -s 2 -d -1 -p CTS -e 38 -c 2 -a 0 -i 0 -k MAC
r -t 39.083002348 -s 0 -d -1 -p CTS -e 38 -c 2 -a 0 -i 0 -k MAC
+ -t 39.083012348 -s 0 -d 2 -p cbr -e 288 -c 2 -a 0 -i 27 -k MAC 
- -t 39.083012348 -s 0 -d 2 -p cbr -e 288 -c 2 -a 0 -i 27 -k MAC
h -t 39.083012348 -s 0 -d 2 -p cbr -e 288 -c 2 -a 0 -i 27 -k MAC
r -t 39.085316989 -s 2 -d 2 -p cbr -e 230 -c 2 -a 0 -i 27 -k MAC
+ -t 39.085326989 -s 2 -d -1 -p ACK -e 38 -c 2 -a 0 -i 0 -k MAC 
- -t 39.085326989 -s 2 -d -1 -p ACK -e 38 -c 2 -a 0 -i 0 -k MAC
h -t 39.085326989 -s 2 -d -1 -p ACK -e 38 -c 2 -a 0 -i 0 -k MAC
r -t 39.085631630 -s 0 -d -1 -p ACK -e 38 -c 2 -a 0 -i 0 -k MAC
+ -t 39.085900989 -s 2 -d -1 -p RTS -e 44 -c 2 -a 0 -i 0 -k MAC 
- -t 39.085900989 -s 2 -d -1 -p RTS -e 44 -c 2 -a 0 -i 0 -k MAC
h -t 39.085900989 -s 2 -d -1 -p RTS -e 44 -c 2 -a 0 -i 0 -k MAC
r -t 39.086253736 -s 1 -d -1 -p RTS -e 44 -c 2 -a 0 -i 0 -k MAC
+ -t 39.086263736 -s 1 -d -1 -p CTS -e 38 -c 2 -a 0 -i 0 -k MAC 
- -t 39.086263736 -s 1 -d -1 -p CTS -e 38 -c 2 -a 0 -i 0 -k MAC
h -t 39.086263736 -s 1 -d -1 -p CTS -e 38 -c 2 -a 0 -i 0 -k MAC
r -t 39.086568484 -s 2 -d -1 -p CTS -e 38 -c 2 -a 0 -i 0 -k MAC
+ -t 39.086578484 -s 2 -d 1 -p cbr -e 288 -c 2 -a 0 -i 27 -k MAC 
- -t 39.086578484 -s 2 -d 1 -p cbr -e 288 -c 2 -a 0 -i 27 -k MAC
h -t 39.086578484 -s 2 -d 1 -p cbr -e 288 -c 2 -a 0 -i 27 -k MAC
r -t 39.088883231 -s 1 -d 1 -p cbr -e 230 -c 2 -a 0 -i 27 -k MAC
+ -t 39.088893231 -s 1 -d -1 -p ACK -e 38 -c 2 -a 0 -i 0 -k MAC 
- -t 39.088893231 -s 1 -d -1 -p ACK -e 38 -c 2 -a 0 -i 0 -k MAC
h -t 39.088893231 -s 1 -d -1 -p ACK -e 38 -c 2 -a 0 -i 0 -k MAC
r -t 39.089197978 -s 2 -d -1 -p ACK -e 38 -c 2 -a 0 -i 0 -k MAC
+ -t 39.092555066 -s 0 -d -1 -p RTS -e 44 -c 2 -a 0 -i 0 -k MAC 
- -t 39.092555066 -s 0 -d -1 -p RTS -e 44 -c 2 -a 0 -i 0 -k MAC
h -t 39.092555066 -s 0 -d -1 -p RTS -e 44 -c 2 -a 0 -i 0 -k MAC
r -t 39.092907707 -s 2 -d -1 -p RTS -e 44 -c 2 -a 0 -i 0 -k MAC
+ -t 39.092917707 -s 2 -d -1 -p CTS -e 38 -c 2 -a 0 -i 0 -k MAC 
- -t 39.092917707 -s 2 -d -1 -p CTS -e 38 -c 2 -a 0 -i 0 -k MAC
h -t 39.092917707 -s 2 -d -1 -p CTS -e 38 -c 2 -a 0 -i 0 -k MAC
r -t 39.093222348 -s 0 -d -1 -p CTS -e 38 -c 2 -a 0 -i 0 -k MAC
+ -t 39.093232348 -s 0 -d 2 -p cbr -e 288 -c 2 -a 0 -i 28 -k MAC 
- -t 39.093232348 -s 0 -d 2 -p cbr -e 288 -c 2 -a 0 -i 28 -k MAC
h -t 39.093232348 -s 0 -d 2 -p cbr -e 288 -c 2 -a 0 -i 28 -k MAC
r -t 39.095536989 -s 2 -d 2 -p cbr -e 230 -c 2 -a 0 -i 28 -k MAC
+ -t 39.095546989 -s 2 -d -1 -p ACK -e 38 -c 2 -a 0 -i 0 -k MAC 
- -t 39.095546989 -s 2 -d -1 -p ACK -e 38 -c 2 -a 0 -i 0 -k MAC
h -t 39.095546989 -s 2 -d -1 -p ACK -e 38 -c 2 -a 0 -i 0 -k MAC
r -t 39.095851630 -s 0 -d -1 -p ACK -e 38 -c 2 -a 0 -i 0 -k MAC
+ -t 39.095980989 -s 2 -d -1 -p RTS -e 44 -c 2 -a 0 -i 0 -k MAC 
- -t 39.095980989 -s 2 -d -1 -p RTS -e 44 -c 2 -a 0 -i 0 -k MAC
h -t 39.095980989 -s 2 -d -1 -p RTS -e 44 -c 2 -a 0 -i 0 -k MAC
r -t 39.096333736 -s 1 -d -1 -p RTS -e 44 -c 2 -a 0 -i 0 -k MAC
+ -t 39.096343736 -s 1 -d -1 -p CTS -e 38 -c 2 -a 0 -i 0 -k MAC 
- -t 39.096343736 -s 1 -d -1 -p CTS -e 38 -c 2 -a 0 -i 0 -k MAC
h -t 39.096343736 -s 1 -d -1 -p CTS -e 38 -c 2 -a 0 -i 0 -k MAC
r -t 39.096648483 -s 2 -d -1 -p CTS -e 38 -c 2 -a 0 -i 0 -k MAC
+ -t 39.096658483 -s 2 -d 1 -p cbr -e 288 -c 2 -a 0 -i 28 -k MAC 
- -t 39.096658483 -s 2 -d 1 -p cbr -e 288 -c 2 -a 0 -i 28 -k MAC
h -t 39.096658483 -s 2 -d 1 -p cbr -e 288 -c 2 -a 0 -i 28 -k MAC
r -t 39.098963230 -s 1 -d 1 -p cbr -e 230 -c 2 -a 0 -i 28 -k MAC
+ -t 39.098973230 -s 1 -d -1 -p ACK -e 38 -c 2 -a 0 -i 0 -k MAC 
- -t 39.098973230 -s 1 -d -1 -p ACK -e 38 -c 2 -a 0 -i 0 -k MAC
h -t 39.098973230 -s 1 -d -1 -p ACK -e 38 -c 2 -a 0 -i 0 -k MAC
r -t 39.099277977 -s 2 -d -1 -p ACK -e 38 -c 2 -a 0 -i 0 -k MAC
+ -t 39.102575066 -s 0 -d -1 -p RTS -e 44 -c 2 -a 0 -i 0 -k MAC 
- -t 39.102575066 -s 0 -d -1 -p RTS -e 44 -c 2 -a 0 -i 0 -k MAC
h -t 39.102575066 -s 0 -d -1 -p RTS -e 44 -c 2 -a 0 -i 0 -k MAC
r -t 39.102927707 -s 2 -d -1 -p RTS -e 44 -c 2 -a 0 -i 0 -k MAC
+ -t 39.102937707 -s 2 -d -1 -p CTS -e 38 -c 2 -a 0 -i 0 -k MAC 
- -t 39.102937707 -s 2 -d -1 -p CTS -e 38 -c 2 -a 0 -i 0 -k MAC
h -t 39.102937707 -s 2 -d -1 -p CTS -e 38 -c 2 -a 0 -i 0 -k MAC
r -t 39.103242348 -s 0 -d -1 -p CTS -e 38 -c 2 -a 0 -i 0 -k MAC
+ -t 39.103252348 -s 0 -d 2 -p cbr -e 288 -c 2 -a 0 -i 29 -k MAC 
- -t 39.103252348 -s 0 -d 2 -p cbr -e 288 -c 2 -a 0 -i 29 -k MAC
h -t 39.103252348 -s 0 -d 2 -p cbr -e 288 -c 2 -a 0 -i 29 -k MAC
r -t 39.105556989 -s 2 -d 2 -p cbr -e 230 -c 2 -a 0 -i 29 -k MAC
+ -t 39.105566989 -s 2 -d -1 -p ACK -e 38 -c 2 -a 0 -i 0 -k MAC 
- -t 39.105566989 -s 2 -d -1 -p ACK -e 38 -c 2 -a 0 -i 0 -k MAC
h -t 39.105566989 -s 2 -d -1 -p ACK -e 38 -c 2 -a 0 -i 0 -k MAC
r -t 39.105871629 -s 0 -d -1 -p ACK -e 38 -c 2 -a 0 -i 0 -k MAC
+ -t 39.106220989 -s 2 -d -1 -p RTS -e 44 -c 2 -a 0 -i 0 -k MAC 
- -t 39.106220989 -s 2 -d -1 -p RTS -e 44 -c 2 -a 0 -i 0 -k MAC
h -t 39.106220989 -s 2 -d -1 -p RTS -e 44 -c 2 -a 0 -i 0 -k MAC
r -t 39.106573736 -s 1 -d -1 -p RTS -e 44 -c 2 -a 0 -i 0 -k MAC
+ -t 39.106583736 -s 1 -d -1 -p CTS -e 38 -c 2 -a 0 -i 0 -k MAC 
- -t 39.106583736 -s 1 -d -1 -p CTS -e 38 -c 2 -a 0 -i 0 -k MAC
h -t 39.106583736 -s 1 -d -1 -p CTS -e 38 -c 2 -a 0 -i 0 -k MAC
r -t 39.106888482 -s 2 -d -1 -p CTS -e 38 -c 2 -a 0 -i 0 -k MAC
+ -t 39.106898482 -s 2 -d 1 -p cbr -e 288 -c 2 -a 0 -i 29 -k MAC 
- -t 39.106898482 -s 2 -d 1 -p cbr -e 288 -c 2 -a 0 -i 29 -k MAC
h -t 39.106898482 -s 2 -d 1 -p cbr -e 288 -c 2 -a 0 -i 29 -k MAC
r -t 39.109203229 -s 1 -d 1 -p cbr -e 230 -c 2 -a 0 -i 29 -k MAC
+ -t 39.109213229 -s 1 -d -1 -p ACK -e 38 -c 2 -a 0 -i 0 -k MAC 
- -t 39.109213229 -s 1 -d -1 -p ACK -e 38 -c 2 -a 0 -i 0 -k MAC
h -t 39.109213229 -s 1 -d -1 -p ACK -e 38 -c 2 -a 0 -i 0 -k MAC
r -t 39.109517976 -s 2 -d -1 -p ACK -e 38 -c 2 -a 0 -i 0 -k MAC
+ -t 40.000555000 -s 0 -d -1 -p RTS -e 44 -c 2 -a 0 -i 0 -k MAC 
- -t 40.000555000 -s 0 -d -1 -p RTS -e 44 -c 2 -a 0 -i 0 -k MAC
h -t 40.000555000 -s 0 -d -1 -p RTS -e 44 -c 2 -a 0 -i 0 -k MAC
r -t 40.000907632 -s 2 -d -1 -p RTS -e 44 -c 2 -a 0 -i 0 -k MAC
+ -t 40.000917632 -s 2 -d -1 -p CTS -e 38 -c 2 -a 0 -i 0 -k MAC 
- -t 40.000917632 -s 2 -d -1 -p CTS -e 38 -c 2 -a 0 -i 0 -k MAC
h -t 40.000917632 -s 2 -d -1 -p CTS -e 38 -c 2 -a 0 -i 0 -k MAC
r -t 40.001222265 -s 0 -d -1 -p CTS -e 38 -c 2 -a 0 -i 0 -k MAC
+ -t 40.001232265 -s 0 -d 2 -p cbr -e 288 -c 2 -a 0 -i 30 -k MAC 
- -t 40.001232265 -s 0 -d 2 -p cbr -e 288 -c 2 -a 0 -i 30 -k MAC
h -t 40.001232265 -s 0 -d 2 -p cbr -e 288 -c 2 -a 0 -i 30 -k MAC
r -t 40.003536897 -s 2 -d 2 -p cbr -e 230 -c 2 -a 0 -i 30 -k MAC
+ -t 40.003546897 -s 2 -d -1 -p ACK -e 38 -c 2 -a 0 -i 0 -k MAC 
- -t 40.003546897 -s 2 -d -1 -p ACK -e 38 -c 2 -a 0 -i 0 -k MAC
h -t 40.003546897 -s 2 -d -1 -p ACK -e 38 -c 2 -a 0 -i 0 -k MAC
r -t 40.003851529 -s 0 -d -1 -p ACK -e 38 -c 2 -a 0 -i 0 -k MAC
+ -t 40.004140897 -s 2 -d -1 -p RTS -e 44 -c 2 -a 0 -i 0 -k MAC 
- -t 40.004140897 -s 2 -d -1 -p RTS -e 44 -c 2 -a 0 -i 0 -k MAC