M 10.00000 0 (5.00, 5.00, 0.00), (250.00, 250.00), 3.00
s 10.000535000 _0_ MAC  --- 0 AODV 106 [0 ffffffff 0 800] ------- [0:255 -1:255 30 0] [0x2 1 1 [1 0] [0 4]] (REQUEST)
s 12.000635000 _0_ MAC  --- 0 AODV 106 [0 ffffffff 0 800] ------- [0:255 -1:255 30 0] [0x2 1 2 [1 0] [0 6]] (REQUEST)
M 15.00000 1 (490.00, 285.00, 0.00), (45.00, 285.00), 5.00
s 16.000395000 _0_ MAC  --- 0 AODV 106 [0 ffffffff 0 800] ------- [0:255 -1:255 30 0] [0x2 1 3 [1 0] [0 8]] (REQUEST)
s 21.500235000 _0_ MAC  --- 0 AODV 106 [0 ffffffff 0 800] ------- [0:255 -1:255 30 0] [0x2 1 4 [1 0] [0 10]] (REQUEST)
r 21.501083809 _2_ MAC  --- 0 AODV 48 [0 ffffffff 0 800] ------- [0:255 -1:255 30 0] [0x2 1 4 [1 0] [0 10]] (REQUEST)
s 21.503889826 _2_ MAC  --- 0 AODV 106 [0 ffffffff 2 800] ------- [2:255 -1:255 29 0] [0x2 2 4 [1 0] [0 10]] (REQUEST)
r 21.504738635 _0_ MAC  --- 0 AODV 48 [0 ffffffff 2 800] ------- [2:255 -1:255 29 0] [0x2 2 4 [1 0] [0 10]] (REQUEST)
D 29.000000000 _0_ RTR NRTE 0 cbr 230 [0 0 0 0] ------- [0:0 1:0 30 0] [0] 0 0
D 29.000000000 _0_ RTR NRTE 1 cbr 230 [0 0 0 0] ------- [0:0 1:0 30 0] [1] 0 0
D 29.000000000 _0_ RTR NRTE 2 cbr 230 [0 0 0 0] ------- [0:0 1:0 30 0] [2] 0 0
D 29.000000000 _0_ RTR NRTE 3 cbr 230 [0 0 0 0] ------- [0:0 1:0 30 0] [3] 0 0
D 29.000000000 _0_ RTR NRTE 4 cbr 230 [0 0 0 0] ------- [0:0 1:0 30 0] [4] 0 0
D 29.000000000 _0_ RTR NRTE 5 cbr 230 [0 0 0 0] ------- [0:0 1:0 30 0] [5] 0 0
D 29.000000000 _0_ RTR NRTE 6 cbr 230 [0 0 0 0] ------- [0:0 1:0 30 0] [6] 0 0
D 29.000000000 _0_ RTR NRTE 7 cbr 230 [0 0 0 0] ------- [0:0 1:0 30 0] [7] 0 0
D 29.000000000 _0_ RTR NRTE 8 cbr 230 [0 0 0 0] ------- [0:0 1:0 30 0] [8] 0 0
D 29.000000000 _0_ RTR NRTE 9 cbr 230 [0 0 0 0] ------- [0:0 1:0 30 0] [9] 0 0
D 29.000000000 _0_ RTR NRTE 10 cbr 230 [0 0 0 0] ------- [0:0 1:0 30 0] [10] 0 0
D 29.000000000 _0_ RTR NRTE 11 cbr 230 [0 0 0 0] ------- [0:0 1:0 30 0] [11] 0 0
D 29.000000000 _0_ RTR NRTE 12 cbr 230 [0 0 0 0] ------- [0:0 1:0 30 0] [12] 0 0
D 29.000000000 _0_ RTR NRTE 13 cbr 230 [0 0 0 0] ------- [0:0 1:0 30 0] [13] 0 0
D 29.000000000 _0_ RTR NRTE 14 cbr 230 [0 0 0 0] ------- [0:0 1:0 30 0] [14] 0 0
D 29.000000000 _0_ RTR NRTE 15 cbr 230 [0 0 0 0] ------- [0:0 1:0 30 0] [15] 0 0
D 29.000000000 _0_ RTR NRTE 16 cbr 230 [0 0 0 0] ------- [0:0 1:0 30 0] [16] 0 0
D 29.000000000 _0_ RTR NRTE 17 cbr 230 [0 0 0 0] ------- [0:0 1:0 30 0] [17] 0 0
D 29.000000000 _0_ RTR NRTE 18 cbr 230 [0 0 0 0] ------- [0:0 1:0 30 0] [18] 0 0
D 29.000000000 _0_ RTR NRTE 19 cbr 230 [0 0 0 0] ------- [0:0 1:0 30 0] [19] 0 0
s 39.000315000 _0_ MAC  --- 0 AODV 106 [0 ffffffff 0 800] ------- [0:255 -1:255 30 0] [0x2 1 5 [1 0] [0 12]] (REQUEST)
r 39.001163642 _2_ MAC  --- 0 AODV 48 [0 ffffffff 0 800] ------- [0:255 -1:255 30 0] [0x2 1 5 [1 0] [0 12]] (REQUEST)
s 39.001851587 _2_ MAC  --- 0 AODV 106 [0 ffffffff 2 800] ------- [2:255 -1:255 29 0] [0x2 2 5 [1 0] [0 12]] (REQUEST)
r 39.002700229 _0_ MAC  --- 0 AODV 48 [0 ffffffff 2 800] ------- [2:255 -1:255 29 0] [0x2 2 5 [1 0] [0 12]] (REQUEST)
r 39.002700336 _1_ MAC  --- 0 AODV 48 [0 ffffffff 2 800] ------- [2:255 -1:255 29 0] [0x2 2 5 [1 0] [0 12]] (REQUEST)
s 39.003020336 _1_ MAC  --- 0 ARP 86 [0 ffffffff 1 806] ------- [REQUEST 1/1 0/2]
r 39.003709084 _2_ MAC  --- 0 ARP 28 [0 ffffffff 1 806] ------- [REQUEST 1/1 0/2]
s 39.003859084 _2_ MAC  --- 0 RTS 44 [52e 1 2 0] 
r 39.004211833 _1_ MAC  --- 0 RTS 44 [52e 1 2 0] 
s 39.004221833 _1_ MAC  --- 0 CTS 38 [3f4 2 0 0] 
r 39.004526581 _2_ MAC  --- 0 CTS 38 [3f4 2 0 0] 
s 39.004536581 _2_ MAC  --- 0 ARP 86 [13a 1 2 806] ------- [REPLY 2/2 1/1]
r 39.005225330 _1_ MAC  --- 0 ARP 28 [13a 1 2 806] ------- [REPLY 2/2 1/1]
s 39.005235330 _1_ MAC  --- 0 ACK 38 [0 2 0 0] 
r 39.005540078 _2_ MAC  --- 0 ACK 38 [0 2 0 0] 
s 39.005649330 _1_ MAC  --- 0 RTS 44 [5ae 2 1 0] 
r 39.006002078 _2_ MAC  --- 0 RTS 44 [5ae 2 1 0] 
s 39.006012078 _2_ MAC  --- 0 CTS 38 [474 1 0 0] 
r 39.006316826 _1_ MAC  --- 0 CTS 38 [474 1 0 0] 
s 39.006326826 _1_ MAC  --- 0 AODV 102 [13a 2 1 800] ------- [1:255 0:255 30 2] [0x4 1 [1 4] 10.000000] (REPLY)
r 39.007143575 _2_ MAC  --- 0 AODV 44 [13a 2 1 800] ------- [1:255 0:255 30 2] [0x4 1 [1 4] 10.000000] (REPLY)
s 39.007153575 _2_ MAC  --- 0 ACK 38 [0 1 0 0] 
r 39.007458323 _1_ MAC  --- 0 ACK 38 [0 1 0 0] 
s 39.007947575 _2_ MAC  --- 0 ARP 86 [0 ffffffff 2 806] ------- [REQUEST 2/2 0/0]
r 39.008636217 _0_ MAC  --- 0 ARP 28 [0 ffffffff 2 806] ------- [REQUEST 2/2 0/0]
r 39.008636323 _1_ MAC  --- 0 ARP 28 [0 ffffffff 2 806] ------- [REQUEST 2/2 0/0]
s 39.008891217 _0_ MAC  --- 0 RTS 44 [52e 2 0 0] 
r 39.009243858 _2_ MAC  --- 0 RTS 44 [52e 2 0 0] 
s 39.009253858 _2_ MAC  --- 0 CTS 38 [3f4 0 0 0] 
r 39.009558500 _0_ MAC  --- 0 CTS 38 [3f4 0 0 0] 
s 39.009568500 _0_ MAC  --- 0 ARP 86 [13a 2 0 806] ------- [REPLY 0/0 2/2]
r 39.010257142 _2_ MAC  --- 0 ARP 28 [13a 2 0 806] ------- [REPLY 0/0 2/2]
s 39.010267142 _2_ MAC  --- 0 ACK 38 [0 0 0 0] 
r 39.010571783 _0_ MAC  --- 0 ACK 38 [0 0 0 0] 
s 39.010741142 _2_ MAC  --- 0 RTS 44 [5ae 0 2 0] 
r 39.011093783 _0_ MAC  --- 0 RTS 44 [5ae 0 2 0] 
s 39.011103783 _0_ MAC  --- 0 CTS 38 [474 2 0 0] 
r 39.011408425 _2_ MAC  --- 0 CTS 38 [474 2 0 0] 
s 39.011418425 _2_ MAC  --- 0 AODV 102 [13a 0 2 800] ------- [1:255 0:255 29 0] [0x4 2 [1 4] 10.000000] (REPLY)
r 39.012235066 _0_ MAC  --- 0 AODV 44 [13a 0 2 800] ------- [1:255 0:255 29 0] [0x4 2 [1 4] 10.000000] (REPLY)
s 39.012245066 _0_ MAC  --- 0 ACK 38 [0 2 0 0] 
r 39.012549708 _2_ MAC  --- 0 ACK 38 [0 2 0 0] 
s 39.012719066 _0_ MAC  --- 0 RTS 44 [b7e 2 0 0] 
r 39.013071708 _2_ MAC  --- 0 RTS 44 [b7e 2 0 0] 
s 39.013081708 _2_ MAC  --- 0 CTS 38 [a44 0 0 0] 
r 39.013386350 _0_ MAC  --- 0 CTS 38 [a44 0 0 0] 
s 39.013396350 _0_ MAC  --- 20 cbr 288 [13a 2 0 800] ------- [0:0 1:0 30 2] [20] 0 0
r 39.015700991 _2_ MAC  --- 20 cbr 230 [13a 2 0 800] ------- [0:0 1:0 30 2] [20] 1 0
s 39.015710991 _2_ MAC  --- 0 ACK 38 [0 0 0 0] 
r 39.016015633 _0_ MAC  --- 0 ACK 38 [0 0 0 0] 
s 39.016304991 _2_ MAC  --- 0 RTS 44 [b7e 1 2 0] 
r 39.016657740 _1_ MAC  --- 0 RTS 44 [b7e 1 2 0] 
s 39.016667740 _1_ MAC  --- 0 CTS 38 [a44 2 0 0] 
r 39.016972488 _2_ MAC  --- 0 CTS 38 [a44 2 0 0] 
s 39.016982488 _2_ MAC  --- 20 cbr 288 [13a 1 2 800] ------- [0:0 1:0 29 1] [20] 1 0
r 39.019287236 _1_ MAC  --- 20 cbr 230 [13a 1 2 800] ------- [0:0 1:0 29 1] [20] 2 0
s 39.019297236 _1_ MAC  --- 0 ACK 38 [0 2 0 0] 
r 39.019601984 _2_ MAC  --- 0 ACK 38 [0 2 0 0] 
s 39.022915066 _0_ MAC  --- 0 RTS 44 [b7e 2 0 0] 
r 39.023267708 _2_ MAC  --- 0 RTS 44 [b7e 2 0 0] 
s 39.023277708 _2_ MAC  --- 0 CTS 38 [a44 0 0 0] 
r 39.023582349 _0_ MAC  --- 0 CTS 38 [a44 0 0 0] 
s 39.023592349 _0_ MAC  --- 21 cbr 288 [13a 2 0 800] ------- [0:0 1:0 30 2] [21] 0 0
r 39.025896991 _2_ MAC  --- 21 cbr 230 [13a 2 0 800] ------- [0:0 1:0 30 2] [21] 1 0
s 39.025906991 _2_ MAC  --- 0 ACK 38 [0 0 0 0] 
r 39.026211632 _0_ MAC  --- 0 ACK 38 [0 0 0 0] 
s 39.026660991 _2_ MAC  --- 0 RTS 44 [b7e 1 2 0] 
r 39.027013739 _1_ MAC  --- 0 RTS 44 [b7e 1 2 0] 
s 39.027023739 _1_ MAC  --- 0 CTS 38 [a44 2 0 0] 
r 39.027328487 _2_ MAC  --- 0 CTS 38 [a44 2 0 0] 
s 39.027338487 _2_ MAC  --- 21 cbr 288 [13a 1 2 800] ------- [0:0 1:0 29 1] [21] 1 0
r 39.029643235 _1_ MAC  --- 21 cbr 230 [13a 1 2 800] ------- [0:0 1:0 29 1] [21] 2 0
s 39.029653235 _1_ MAC  --- 0 ACK 38 [0 2 0 0] 
r 39.029957983 _2_ MAC  --- 0 ACK 38 [0 2 0 0] 
s 39.032375066 _0_ MAC  --- 0 RTS 44 [b7e 2 0 0] 
r 39.032727708 _2_ MAC  --- 0 RTS 44 [b7e 2 0 0] 
s 39.032737708 _2_ MAC  --- 0 CTS 38 [a44 0 0 0] 
r 39.033042349 _0_ MAC  --- 0 CTS 38 [a44 0 0 0] 
s 39.033052349 _0_ MAC  --- 22 cbr 288 [13a 2 0 800] ------- [0:0 1:0 30 2] [22] 0 0
r 39.035356991 _2_ MAC  --- 22 cbr 230 [13a 2 0 800] ------- [0:0 1:0 30 2] [22] 1 0
s 39.035366991 _2_ MAC  --- 0 ACK 38 [0 0 0 0] 
r 39.035671632 _0_ MAC  --- 0 ACK 38 [0 0 0 0] 
s 39.036020991 _2_ MAC  --- 0 RTS 44 [b7e 1 2 0] 
r 39.036373739 _1_ MAC  --- 0 RTS 44 [b7e 1 2 0] 
s 39.036383739 _1_ MAC  --- 0 CTS 38 [a44 2 0 0] 
r 39.036688487 _2_ MAC  --- 0 CTS 38 [a44 2 0 0] 
s 39.036698487 _2_ MAC  --- 22 cbr 288 [13a 1 2 800] ------- [0:0 1:0 29 1] [22] 1 0
r 39.039003235 _1_ MAC  --- 22 cbr 230 [13a 1 2 800] ------- [0:0 1:0 29 1] [22] 2 0
s 39.039013235 _1_ MAC  --- 0 ACK 38 [0 2 0 0] 
r 39.039317982 _2_ MAC  --- 0 ACK 38 [0 2 0 0] 
s 39.042415066 _0_ MAC  --- 0 RTS 44 [b7e 2 0 0] 
r 39.042767708 _2_ MAC  --- 0 RTS 44 [b7e 2 0 0] 
s 39.042777708 _2_ MAC  --- 0 CTS 38 [a44 0 0 0] 
r 39.043082349 _0_ MAC  --- 0 CTS 38 [a44 0 0 0] 
s 39.043092349 _0_ MAC  --- 23 cbr 288 [13a 2 0 800] ------- [0:0 1:0 30 2] [23] 0 0
r 39.045396990 _2_ MAC  --- 23 cbr 230 [13a 2 0 800] ------- [0:0 1:0 30 2] [23] 1 0
s 39.045406990 _2_ MAC  --- 0 ACK 38 [0 0 0 0] 
r 39.045711632 _0_ MAC  --- 0 ACK 38 [0 0 0 0] 
s 39.046040990 _2_ MAC  --- 0 RTS 44 [b7e 1 2 0] 
r 39.046393738 _1_ MAC  --- 0 RTS 44 [b7e 1 2 0] 
s 39.046403738 _1_ MAC  --- 0 CTS 38 [a44 2 0 0] 
r 39.046708486 _2_ MAC  --- 0 CTS 38 [a44 2 0 0] 
s 39.046718486 _2_ MAC  --- 23 cbr 288 [13a 1 2 800] ------- [0:0 1:0 29 1] [23] 1 0
r 39.049023234 _1_ MAC  --- 23 cbr 230 [13a 1 2 800] ------- [0:0 1:0 29 1] [23] 2 0
s 39.049033234 _1_ MAC  --- 0 ACK 38 [0 2 0 0] 
r 39.049337981 _2_ MAC  --- 0 ACK 38 [0 2 0 0] 
s 39.052855066 _0_ MAC  --- 0 RTS 44 [b7e 2 0 0] 
r 39.053207708 _2_ MAC  --- 0 RTS 44 [b7e 2 0 0] 
s 39.053217708 _2_ MAC  --- 0 CTS 38 [a44 0 0 0] 
r 39.053522349 _0_ MAC  --- 0 CTS 38 [a44 0 0 0] 
s 39.053532349 _0_ MAC  --- 24 cbr 288 [13a 2 0 800] ------- [0:0 1:0 30 2] [24] 0 0
r 39.055836990 _2_ MAC  --- 24 cbr 230 [13a 2 0 800] ------- [0:0 1:0 30 2] [24] 1 0
s 39.055846990 _2_ MAC  --- 0 ACK 38 [0 0 0 0] 
r 39.056151631 _0_ MAC  --- 0 ACK 38 [0 0 0 0] 
s 39.056420990 _2_ MAC  --- 0 RTS 44 [b7e 1 2 0] 
r 39.056773738 _1_ MAC  --- 0 RTS 44 [b7e 1 2 0] 
s 39.056783738 _1_ MAC  --- 0 CTS 38 [a44 2 0 0] 
r 39.057088485 _2_ MAC  --- 0 CTS 38 [a44 2 0 0] 
s 39.057098485 _2_ MAC  --- 24 cbr 288 [13a 1 2 800] ------- [0:0 1:0 29 1] [24] 1 0
r 39.059403233 _1_ MAC  --- 24 cbr 230 [13a 1 2 800] ------- [0:0 1:0 29 1] [24] 2 0
s 39.059413233 _1_ MAC  --- 0 ACK 38 [0 2 0 0] 
r 39.059717980 _2_ MAC  --- 0 ACK 38 [0 2 0 0] 
s 39.062395066 _0_ MAC  --- 0 RTS 44 [b7e 2 0 0] 
r 39.062747708 _2_ MAC  --- 0 RTS 44 [b7e 2 0 0] 
s 39.062757708 _2_ MAC  --- 0 CTS 38 [a44 0 0 0] 
r 39.063062349 _0_ MAC  --- 0 CTS 38 [a44 0 0 0] 
s 39.063072349 _0_ MAC  --- 25 cbr 288 [13a 2 0 800] ------- [0:0 1:0 30 2] [25] 0 0
r 39.065376990 _2_ MAC  --- 25 cbr 230 [13a 2 0 800] ------- [0:0 1:0 30 2] [25] 1 0
s 39.065386990 _2_ MAC  --- 0 ACK 38 [0 0 0 0] 
r 39.065691631 _0_ MAC  --- 0 ACK 38 [0 0 0 0] 
s 39.065860990 _2_ MAC  --- 0 RTS 44 [b7e 1 2 0] 
r 39.066213737 _1_ MAC  --- 0 RTS 44 [b7e 1 2 0] 
s 39.066223737 _1_ MAC  --- 0 CTS 38 [a44 2 0 0] 
r 39.066528485 _2_ MAC  --- 0 CTS 38 [a44 2 0 0] 
s 39.066538485 _2_ MAC  --- 25 cbr 288 [13a 1 2 800] ------- [0:0 1:0 29 1] [25] 1 0
r 39.068843232 _1_ MAC  --- 25 cbr 230 [13a 1 2 800] ------- [0:0 1:0 29 1] [25] 2 0
s 39.068853232 _1_ MAC  --- 0 ACK 38 [0 2 0 0] 
r 39.069157980 _2_ MAC  --- 0 ACK 38 [0 2 0 0] 
s 39.072615066 _0_ MAC  --- 0 RTS 44 [b7e 2 0 0] 
r 39.072967707 _2_ MAC  --- 0 RTS 44 [b7e 2 0 0] 
s 39.072977707 _2_ MAC  --- 0 CTS 38 [a44 0 0 0] 
r 39.073282349 _0_ MAC  --- 0 CTS 38 [a44 0 0 0] 
s 39.073292349 _0_ MAC  --- 26 cbr 288 [13a 2 0 800] ------- [0:0 1:0 30 2] [26] 0 0
r 39.075596990 _2_ MAC  --- 26 cbr 230 [13a 2 0 800] ------- [0:0 1:0 30 2] [26] 1 0
s 39.075606990 _2_ MAC  --- 0 ACK 38 [0 0 0 0] 
r 39.075911631 _0_ MAC  --- 0 ACK 38 [0 0 0 0] 
s 39.076140990 _2_ MAC  --- 0 RTS 44 [b7e 1 2 0] 
r 39.076493737 _1_ MAC  --- 0 RTS 44 [b7e 1 2 0] 
s 39.076503737 _1_ MAC  --- 0 CTS 38 [a44 2 0 0] 
r 39.076808484 _2_ MAC  --- 0 CTS 38 [a44 2 0 0] 
s 39.076818484 _2_ MAC  --- 26 cbr 288 [13a 1 2 800] ------- [0:0 1:0 29 1] [26] 1 0
r 39.079123231 _1_ MAC  --- 26 cbr 230 [13a 1 2 800] ------- [0:0 1:0 29 1] [26] 2 0
s 39.079133231 _1_ MAC  --- 0 ACK 38 [0 2 0 0] 
r 39.079437979 _2_ MAC  --- 0 ACK 38 [0 2 0 0] 
s 39.082335066 _0_ MAC  --- 0 RTS 44 [b7e 2 0 0] 
r 39.082687707 _2_ MAC  --- 0 RTS 44 [b7e 2 0 0] 
s 39.082697707 _2_ MAC  --- 0 CTS 38 [a44 0 0 0] 
r 39.083002348 _0_ MAC  --- 0 CTS 38 [a44 0 0 0] 
s 39.083012348 _0_ MAC  --- 27 cbr 288 [13a 2 0 800] ------- [0:0 1:0 30 2] [27] 0 0
r 39.085316989 _2_ MAC  --- 27 cbr 230 [13a 2 0 800] ------- [0:0 1:0 30 2] [27] 1 0
s 39.085326989 _2_ MAC  --- 0 ACK 38 [0 0 0 0] 
r 39.085631630 _0_ MAC  --- 0 ACK 38 [0 0 0 0] 
s 39.085900989 _2_ MAC  --- 0 RTS 44 [b7e 1 2 0] 
r 39.086253736 _1_ MAC  --- 0 RTS 44 [b7e 1 2 0] 
s 39.086263736 _1_ MAC  --- 0 CTS 38 [a44 2 0 0] 
r 39.086568484 _2_ MAC  --- 0 CTS 38 [a44 2 0 0] 
s 39.086578484 _2_ MAC  --- 27 cbr 288 [13a 1 2 800] ------- [0:0 1:0 29 1] [27] 1 0
r 39.088883231 _1_ MAC  --- 27 cbr 230 [13a 1 2 800] ------- [0:0 1:0 29 1] [27] 2 0
s 39.088893231 _1_ MAC  --- 0 ACK 38 [0 2 0 0] 
r 39.089197978 _2_ MAC  --- 0 ACK 38 [0 2 0 0] 
s 39.092555066 _0_ MAC  --- 0 RTS 44 [b7e 2 0 0] 
r 39.092907707 _2_ MAC  --- 0 RTS 44 [b7e 2 0 0] 
s 39.092917707 _2_ MAC  --- 0 CTS 38 [a44 0 0 0] 
r 39.093222348 _0_ MAC  --- 0 CTS 38 [a44 0 0 0] 
s 39.093232348 _0_ MAC  --- 28 cbr 288 [13a 2 0 800] ------- [0:0 1:0 30 2] [28] 0 0
r 39.095536989 _2_ MAC  --- 28 cbr 230 [13a 2 0 800] ------- [0:0 1:0 30 2] [28] 1 0
s 39.095546989 _2_ MAC  --- 0 ACK 38 [0 0 0 0] 
r 39.095851630 _0_ MAC  --- 0 ACK 38 [0 0 0 0] 
s 39.095980989 _2_ MAC  --- 0 RTS 44 [b7e 1 2 0] 
r 39.096333736 _1_ MAC  --- 0 RTS 44 [b7e 1 2 0] 
s 39.096343736 _1_ MAC  --- 0 CTS 38 [a44 2 0 0] 
r 39.096648483 _2_ MAC  --- 0 CTS 38 [a44 2 0 0] 
s 39.096658483 _2_ MAC  --- 28 cbr 288 [13a 1 2 800] ------- [0:0 1:0 29 1] [28] 1 0
r 39.098963230 _1_ MAC  --- 28 cbr 230 [13a 1 2 800] ------- [0:0 1:0 29 1] [28] 2 0
s 39.098973230 _1_ MAC  --- 0 ACK 38 [0 2 0 0] 
r 39.099277977 _2_ MAC  --- 0 ACK 38 [0 2 0 0] 
s 39.102575066 _0_ MAC  --- 0 RTS 44 [b7e 2 0 0] 
r 39.102927707 _2_ MAC  --- 0 RTS 44 [b7e 2 0 0] 
s 39.102937707 _2_ MAC  --- 0 CTS 38 [a44 0 0 0] 
r 39.103242348 _0_ MAC  --- 0 CTS 38 [a44 0 0 0] 
s 39.103252348 _0_ MAC  --- 29 cbr 288 [13a 2 0 800] ------- [0:0 1:0 30 2] [29] 0 0
r 39.105556989 _2_ MAC  --- 29 cbr 230 [13a 2 0 800] ------- [0:0 1:0 30 2] [29] 1 0
s 39.105566989 _2_ MAC  --- 0 ACK 38 [0 0 0 0] 
r 39.105871629 _0_ MAC  --- 0 ACK 38 [0 0 0 0] 
s 39.106220989 _2_ MAC  --- 0 RTS 44 [b7e 1 2 0] 
r 39.106573736 _1_ MAC  --- 0 RTS 44 [b7e 1 2 0] 
s 39.106583736 _1_ MAC  --- 0 CTS 38 [a44 2 0 0] 
r 39.106888482 _2_ MAC  --- 0 CTS 38 [a44 2 0 0] 
s 39.106898482 _2_ MAC  --- 29 cbr 288 [13a 1 2 800] ------- [0:0 1:0 29 1] [29] 1 0
r 39.109203229 _1_ MAC  --- 29 cbr 230 [13a 1 2 800] ------- [0:0 1:0 29 1] [29] 2 0
s 39.109213229 _1_ MAC  --- 0 ACK 38 [0 2 0 0] 
r 39.109517976 _2_ MAC  --- 0 ACK 38 [0 2 0 0] 
s 40.000555000 _0_ MAC  --- 0 RTS 44 [b7e 2 0 0] 
r 40.000907632 _2_ MAC  --- 0 RTS 44 [b7e 2 0 0] 
s 40.000917632 _2_ MAC  --- 0 CTS 38 [a44 0 0 0] 
r 40.001222265 _0_ MAC  --- 0 CTS 38 [a44 0 0 0] 
s 40.001232265 _0_ MAC  --- 30 cbr 288 [13a 2 0 800] ------- [0:0 1:0 30 2] [30] 0 0
r 40.003536897 _2_ MAC  --- 30 cbr 230 [13a 2 0 800] ------- [0:0 1:0 30 2] [30] 1 0
s 40.003546897 _2_ MAC  --- 0 ACK 38 [0 0 0 0] 
r 40.003851529 _0_ MAC  --- 0 ACK 38 [0 0 0 0] 
s 40.004140897 _2_ MAC  --- 0 RTS 44 [b7e 1 2 0] 
r 40.004493629 _1_ MAC  --- 0 RTS 44 [b7e 1 2 0] 
s 40.004503629 _1_ MAC  --- 0 CTS 38 [a44 2 0 0] 
r 40.004808361 _2_ MAC  --- 0 CTS 38 [a44 2 0 0] 
s 40.004818361 _2_ MAC  --- 30 cbr 288 [13a 1 2 800] ------- [0:0 1:0 29 1] [30] 1 0
r 40.007123093 _1_ MAC  --- 30 cbr 230 [13a 1 2 800] ------- [0:0 1:0 29 1] [30] 2 0
s 40.007133093 _1_ MAC  --- 0 ACK 38 [0 2 0 0] 
r 40.007437825 _2_ MAC  --- 0 ACK 38 [0 2 0 0] 
s 41.000115000 _0_ MAC  --- 0 RTS 44 [b7e 2 0 0] 
r 41.000467623 _2_ MAC  --- 0 RTS 44 [b7e 2 0 0] 
s 41.000477623 _2_ MAC  --- 0 CTS 38 [a44 0 0 0] 
r 41.000782246 _0_ MAC  --- 0 CTS 38 [a44 0 0 0] 
s 41.000792246 _0_ MAC  --- 31 cbr 288 [13a 2 0 800] ------- [0:0 1:0 30 2] [31] 0 0
r 41.003096869 _2_ MAC  --- 31 cbr 230 [13a 2 0 800] ------- [0:0 1:0 30 2] [31] 1 0
s 41.003106869 _2_ MAC  --- 0 ACK 38 [0 0 0 0] 
r 41.003411492 _0_ MAC  --- 0 ACK 38 [0 0 0 0] 
s 41.003920869 _2_ MAC  --- 0 RTS 44 [b7e 1 2 0] 
r 41.004273585 _1_ MAC  --- 0 RTS 44 [b7e 1 2 0] 
s 41.004283585 _1_ MAC  --- 0 CTS 38 [a44 2 0 0] 
r 41.004588300 _2_ MAC  --- 0 CTS 38 [a44 2 0 0] 
s 41.004598300 _2_ MAC  --- 31 cbr 288 [13a 1 2 800] ------- [0:0 1:0 29 1] [31] 1 0
r 41.006903016 _1_ MAC  --- 31 cbr 230 [13a 1 2 800] ------- [0:0 1:0 29 1] [31] 2 0
s 41.006913016 _1_ MAC  --- 0 ACK 38 [0 2 0 0] 
r 41.007217732 _2_ MAC  --- 0 ACK 38 [0 2 0 0] 
s 42.000175000 _0_ MAC  --- 0 RTS 44 [b7e 2 0 0] 
r 42.000527614 _2_ MAC  --- 0 RTS 44 [b7e 2 0 0] 
s 42.000537614 _2_ MAC  --- 0 CTS 38 [a44 0 0 0] 
r 42.000842227 _0_ MAC  --- 0 CTS 38 [a44 0 0 0] 
s 42.000852227 _0_ MAC  --- 32 cbr 288 [13a 2 0 800] ------- [0:0 1:0 30 2] [32] 0 0
r 42.003156841 _2_ MAC  --- 32 cbr 230 [13a 2 0 800] ------- [0:0 1:0 30 2] [32] 1 0
s 42.003166841 _2_ MAC  --- 0 ACK 38 [0 0 0 0] 
r 42.003471454 _0_ MAC  --- 0 ACK 38 [0 0 0 0] 
s 42.003600841 _2_ MAC  --- 0 RTS 44 [b7e 1 2 0] 
r 42.003953540 _1_ MAC  --- 0 RTS 44 [b7e 1 2 0] 
s 42.003963540 _1_ MAC  --- 0 CTS 38 [a44 2 0 0] 
r 42.004268240 _2_ MAC  --- 0 CTS 38 [a44 2 0 0] 
s 42.004278240 _2_ MAC  --- 32 cbr 288 [13a 1 2 800] ------- [0:0 1:0 29 1] [32] 1 0
r 42.006582939 _1_ MAC  --- 32 cbr 230 [13a 1 2 800] ------- [0:0 1:0 29 1] [32] 2 0
s 42.006592939 _1_ MAC  --- 0 ACK 38 [0 2 0 0] 
r 42.006897639 _2_ MAC  --- 0 ACK 38 [0 2 0 0] 
s 43.000135000 _0_ MAC  --- 0 RTS 44 [b7e 2 0 0] 
r 43.000487604 _2_ MAC  --- 0 RTS 44 [b7e 2 0 0] 
s 43.000497604 _2_ MAC  --- 0 CTS 38 [a44 0 0 0] 
r 43.000802208 _0_ MAC  --- 0 CTS 38 [a44 0 0 0] 
s 43.000812208 _0_ MAC  --- 33 cbr 288 [13a 2 0 800] ------- [0:0 1:0 30 2] [33] 0 0
r 43.003116812 _2_ MAC  --- 33 cbr 230 [13a 2 0 800] ------- [0:0 1:0 30 2] [33] 1 0
s 43.003126812 _2_ MAC  --- 0 ACK 38 [0 0 0 0] 
r 43.003431417 _0_ MAC  --- 0 ACK 38 [0 0 0 0] 
s 43.003820812 _2_ MAC  --- 0 RTS 44 [b7e 1 2 0] 
r 43.004173496 _1_ MAC  --- 0 RTS 44 [b7e 1 2 0] 
s 43.004183496 _1_ MAC  --- 0 CTS 38 [a44 2 0 0] 
r 43.004488179 _2_ MAC  --- 0 CTS 38 [a44 2 0 0] 
s 43.004498179 _2_ MAC  --- 33 cbr 288 [13a 1 2 800] ------- [0:0 1:0 29 1] [33] 1 0
r 43.006802862 _1_ MAC  --- 33 cbr 230 [13a 1 2 800] ------- [0:0 1:0 29 1] [33] 2 0
s 43.006812862 _1_ MAC  --- 0 ACK 38 [0 2 0 0] 
r 43.007117545 _2_ MAC  --- 0 ACK 38 [0 2 0 0] 
s 44.000135000 _0_ MAC  --- 0 RTS 44 [b7e 2 0 0] 
r 44.000487595 _2_ MAC  --- 0 RTS 44 [b7e 2 0 0] 
s 44.000497595 _2_ MAC  --- 0 CTS 38 [a44 0 0 0] 
r 44.000802190 _0_ MAC  --- 0 CTS 38 [a44 0 0 0] 
s 44.000812190 _0_ MAC  --- 34 cbr 288 [13a 2 0 800] ------- [0:0 1:0 30 2] [34] 0 0
r 44.003116784 _2_ MAC  --- 34 cbr 230 [13a 2 0 800] ------- [0:0 1:0 30 2] [34] 1 0
s 44.003126784 _2_ MAC  --- 0 ACK 38 [0 0 0 0] 
r 44.003431379 _0_ MAC  --- 0 ACK 38 [0 0 0 0] 
s 44.004060784 _2_ MAC  --- 0 RTS 44 [b7e 1 2 0] 
r 44.004413451 _1_ MAC  --- 0 RTS 44 [b7e 1 2 0] 
s 44.004423451 _1_ MAC  --- 0 CTS 38 [a44 2 0 0] 
r 44.004728118 _2_ MAC  --- 0 CTS 38 [a44 2 0 0] 
s 44.004738118 _2_ MAC  --- 34 cbr 288 [13a 1 2 800] ------- [0:0 1:0 29 1] [34] 1 0
r 44.007042785 _1_ MAC  --- 34 cbr 230 [13a 1 2 800] ------- [0:0 1:0 29 1] [34] 2 0
s 44.007052785 _1_ MAC  --- 0 ACK 38 [0 2 0 0] 
r 44.007357452 _2_ MAC  --- 0 ACK 38 [0 2 0 0] 
s 45.000515000 _0_ MAC  --- 0 RTS 44 [b7e 2 0 0] 
r 45.000867585 _2_ MAC  --- 0 RTS 44 [b7e 2 0 0] 
s 45.000877585 _2_ MAC  --- 0 CTS 38 [a44 0 0 0] 
r 45.001182171 _0_ MAC  --- 0 CTS 38 [a44 0 0 0] 
s 45.001192171 _0_ MAC  --- 35 cbr 288 [13a 2 0 800] ------- [0:0 1:0 30 2] [35] 0 0
r 45.003496756 _2_ MAC  --- 35 cbr 230 [13a 2 0 800] ------- [0:0 1:0 30 2] [35] 1 0
s 45.003506756 _2_ MAC  --- 0 ACK 38 [0 0 0 0] 
r 45.003811342 _0_ MAC  --- 0 ACK 38 [0 0 0 0] 
s 45.004400756 _2_ MAC  --- 0 RTS 44 [b7e 1 2 0] 
r 45.004753407 _1_ MAC  --- 0 RTS 44 [b7e 1 2 0] 
s 45.004763407 _1_ MAC  --- 0 CTS 38 [a44 2 0 0] 
r 45.005068058 _2_ MAC  --- 0 CTS 38 [a44 2 0 0] 
s 45.005078058 _2_ MAC  --- 35 cbr 288 [13a 1 2 800] ------- [0:0 1:0 29 1] [35] 1 0
r 45.007382709 _1_ MAC  --- 35 cbr 230 [13a 1 2 800] ------- [0:0 1:0 29 1] [35] 2 0
s 45.007392709 _1_ MAC  --- 0 ACK 38 [0 2 0 0] 
r 45.007697359 _2_ MAC  --- 0 ACK 38 [0 2 0 0] 
s 46.000375000 _0_ MAC  --- 0 RTS 44 [b7e 2 0 0] 
r 46.000727576 _2_ MAC  --- 0 RTS 44 [b7e 2 0 0] 
s 46.000737576 _2_ MAC  --- 0 CTS 38 [a44 0 0 0] 
r 46.001042152 _0_ MAC  --- 0 CTS 38 [a44 0 0 0] 
s 46.001052152 _0_ MAC  --- 36 cbr 288 [13a 2 0 800] ------- [0:0 1:0 30 2] [36] 0 0
r 46.003356728 _2_ MAC  --- 36 cbr 230 [13a 2 0 800] ------- [0:0 1:0 30 2] [36] 1 0
s 46.003366728 _2_ MAC  --- 0 ACK 38 [0 0 0 0] 
r 46.003671305 _0_ MAC  --- 0 ACK 38 [0 0 0 0] 
s 46.004060728 _2_ MAC  --- 0 RTS 44 [b7e 1 2 0] 
r 46.004413363 _1_ MAC  --- 0 RTS 44 [b7e 1 2 0] 
s 46.004423363 _1_ MAC  --- 0 CTS 38 [a44 2 0 0] 
r 46.004727998 _2_ MAC  --- 0 CTS 38 [a44 2 0 0] 
s 46.004737998 _2_ MAC  --- 36 cbr 288 [13a 1 2 800] ------- [0:0 1:0 29 1] [36] 1 0
r 46.007042632 _1_ MAC  --- 36 cbr 230 [13a 1 2 800] ------- [0:0 1:0 29 1] [36] 2 0
s 46.007052632 _1_ MAC  --- 0 ACK 38 [0 2 0 0] 
r 46.007357267 _2_ MAC  --- 0 ACK 38 [0 2 0 0] 
s 47.000295000 _0_ MAC  --- 0 RTS 44 [b7e 2 0 0] 
r 47.000647567 _2_ MAC  --- 0 RTS 44 [b7e 2 0 0] 
s 47.000657567 _2_ MAC  --- 0 CTS 38 [a44 0 0 0] 
r 47.000962134 _0_ MAC  --- 0 CTS 38 [a44 0 0 0] 
s 47.000972134 _0_ MAC  --- 37 cbr 288 [13a 2 0 800] ------- [0:0 1:0 30 2] [37] 0 0
r 47.003276701 _2_ MAC  --- 37 cbr 230 [13a 2 0 800] ------- [0:0 1:0 30 2] [37] 1 0
s 47.003286701 _2_ MAC  --- 0 ACK 38 [0 0 0 0] 
r 47.003591267 _0_ MAC  --- 0 ACK 38 [0 0 0 0] 
s 47.003820701 _2_ MAC  --- 0 RTS 44 [b7e 1 2 0] 
r 47.004173319 _1_ MAC  --- 0 RTS 44 [b7e 1 2 0] 
s 47.004183319 _1_ MAC  --- 0 CTS 38 [a44 2 0 0] 
r 47.004487937 _2_ MAC  --- 0 CTS 38 [a44 2 0 0] 
s 47.004497937 _2_ MAC  --- 37 cbr 288 [13a 1 2 800] ------- [0:0 1:0 29 1] [37] 1 0
r 47.006802556 _1_ MAC  --- 37 cbr 230 [13a 1 2 800] ------- [0:0 1:0 29 1] [37] 2 0
s 47.006812556 _1_ MAC  --- 0 ACK 38 [0 2 0 0] 
r 47.007117174 _2_ MAC  --- 0 ACK 38 [0 2 0 0] 
s 48.000475000 _0_ MAC  --- 0 RTS 44 [b7e 2 0 0] 
r 48.000827558 _2_ MAC  --- 0 RTS 44 [b7e 2 0 0] 
s 48.000837558 _2_ MAC  --- 0 CTS 38 [a44 0 0 0] 
r 48.001142115 _0_ MAC  --- 0 CTS 38 [a44 0 0 0] 
s 48.001152115 _0_ MAC  --- 38 cbr 288 [13a 2 0 800] ------- [0:0 1:0 30 2] [38] 0 0
r 48.003456673 _2_ MAC  --- 38 cbr 230 [13a 2 0 800] ------- [0:0 1:0 30 2] [38] 1 0
s 48.003466673 _2_ MAC  --- 0 ACK 38 [0 0 0 0] 
r 48.003771230 _0_ MAC  --- 0 ACK 38 [0 0 0 0] 
s 48.003940673 _2_ MAC  --- 0 RTS 44 [b7e 1 2 0] 
r 48.004293275 _1_ MAC  --- 0 RTS 44 [b7e 1 2 0] 
s 48.004303275 _1_ MAC  --- 0 CTS 38 [a44 2 0 0] 
r 48.004607877 _2_ MAC  --- 0 CTS 38 [a44 2 0 0] 
s 48.004617877 _2_ MAC  --- 38 cbr 288 [13a 1 2 800] ------- [0:0 1:0 29 1] [38] 1 0
r 48.006922479 _1_ MAC  --- 38 cbr 230 [13a 1 2 800] ------- [0:0 1:0 29 1] [38] 2 0
s 48.006932479 _1_ MAC  --- 0 ACK 38 [0 2 0 0] 
r 48.007237082 _2_ MAC  --- 0 ACK 38 [0 2 0 0] 
s 49.000075000 _0_ MAC  --- 0 RTS 44 [b7e 2 0 0] 
r 49.000427548 _2_ MAC  --- 0 RTS 44 [b7e 2 0 0] 
s 49.000437548 _2_ MAC  --- 0 CTS 38 [a44 0 0 0] 
r 49.000742097 _0_ MAC  --- 0 CTS 38 [a44 0 0 0] 
s 49.000752097 _0_ MAC  --- 39 cbr 288 [13a 2 0 800] ------- [0:0 1:0 30 2] [39] 0 0
r 49.003056645 _2_ MAC  --- 39 cbr 230 [13a 2 0 800] ------- [0:0 1:0 30 2] [39] 1 0
s 49.003066645 _2_ MAC  --- 0 ACK 38 [0 0 0 0] 
r 49.003371193 _0_ MAC  --- 0 ACK 38 [0 0 0 0] 
s 49.003560645 _2_ MAC  --- 0 RTS 44 [b7e 1 2 0] 
r 49.003913231 _1_ MAC  --- 0 RTS 44 [b7e 1 2 0] 
s 49.003923231 _1_ MAC  --- 0 CTS 38 [a44 2 0 0] 
r 49.004227817 _2_ MAC  --- 0 CTS 38 [a44 2 0 0] 
s 49.004237817 _2_ MAC  --- 39 cbr 288 [13a 1 2 800] ------- [0:0 1:0 29 1] [39] 1 0
r 49.006542403 _1_ MAC  --- 39 cbr 230 [13a 1 2 800] ------- [0:0 1:0 29 1] [39] 2 0
s 49.006552403 _1_ MAC  --- 0 ACK 38 [0 2 0 0] 
r 49.006856990 _2_ MAC  --- 0 ACK 38 [0 2 0 0] 
s 50.000495000 _0_ MAC  --- 0 RTS 44 [b7e 2 0 0] 
r 50.000847539 _2_ MAC  --- 0 RTS 44 [b7e 2 0 0] 
s 50.000857539 _2_ MAC  --- 0 CTS 38 [a44 0 0 0] 
r 50.001162078 _0_ MAC  --- 0 CTS 38 [a44 0 0 0] 
s 50.001172078 _0_ MAC  --- 40 cbr 288 [13a 2 0 800] ------- [0:0 1:0 30 2] [40] 0 0
r 50.003476617 _2_ MAC  --- 40 cbr 230 [13a 2 0 800] ------- [0:0 1:0 30 2] [40] 1 0
s 50.003486617 _2_ MAC  --- 0 ACK 38 [0 0 0 0] 
r 50.003791157 _0_ MAC  --- 0 ACK 38 [0 0 0 0] 
s 50.004340617 _2_ MAC  --- 0 RTS 44 [b7e 1 2 0] 
r 50.004693187 _1_ MAC  --- 0 RTS 44 [b7e 1 2 0] 
s 50.004703187 _1_ MAC  --- 0 CTS 38 [a44 2 0 0] 
r 50.005007757 _2_ MAC  --- 0 CTS 38 [a44 2 0 0] 
s 50.005017757 _2_ MAC  --- 40 cbr 288 [13a 1 2 800] ------- [0:0 1:0 29 1] [40] 1 0
r 50.007322327 _1_ MAC  --- 40 cbr 230 [13a 1 2 800] ------- [0:0 1:0 29 1] [40] 2 0
s 50.007332327 _1_ MAC  --- 0 ACK 38 [0 2 0 0] 
r 50.007636897 _2_ MAC  --- 0 ACK 38 [0 2 0 0] 
s 51.000095000 _0_ MAC  --- 0 RTS 44 [b7e 2 0 0] 
r 51.000447530 _2_ MAC  --- 0 RTS 44 [b7e 2 0 0] 
s 51.000457530 _2_ MAC  --- 0 CTS 38 [a44 0 0 0] 
r 51.000762060 _0_ MAC  --- 0 CTS 38 [a44 0 0 0] 
s 51.000772060 _0_ MAC  --- 41 cbr 288 [13a 2 0 800] ------- [0:0 1:0 30 2] [41] 0 0
r 51.003076590 _2_ MAC  --- 41 cbr 230 [13a 2 0 800] ------- [0:0 1:0 30 2] [41] 1 0
s 51.003086590 _2_ MAC  --- 0 ACK 38 [0 0 0 0] 
r 51.003391120 _0_ MAC  --- 0 ACK 38 [0 0 0 0] 
s 51.003700590 _2_ MAC  --- 0 RTS 44 [b7e 1 2 0] 
r 51.004053144 _1_ MAC  --- 0 RTS 44 [b7e 1 2 0] 
s 51.004063144 _1_ MAC  --- 0 CTS 38 [a44 2 0 0] 
r 51.004367698 _2_ MAC  --- 0 CTS 38 [a44 2 0 0] 
s 51.004377698 _2_ MAC  --- 41 cbr 288 [13a 1 2 800] ------- [0:0 1:0 29 1] [41] 1 0
r 51.006682252 _1_ MAC  --- 41 cbr 230 [13a 1 2 800] ------- [0:0 1:0 29 1] [41] 2 0
s 51.006692252 _1_ MAC  --- 0 ACK 38 [0 2 0 0] 
r 51.006996806 _2_ MAC  --- 0 ACK 38 [0 2 0 0] 
s 52.000135000 _0_ MAC  --- 0 RTS 44 [b7e 2 0 0] 
r 52.000487521 _2_ MAC  --- 0 RTS 44 [b7e 2 0 0] 
s 52.000497521 _2_ MAC  --- 0 CTS 38 [a44 0 0 0] 
r 52.000802042 _0_ MAC  --- 0 CTS 38 [a44 0 0 0] 
s 52.000812042 _0_ MAC  --- 42 cbr 288 [13a 2 0 800] ------- [0:0 1:0 30 2] [42] 0 0
r 52.003116562 _2_ MAC  --- 42 cbr 230 [13a 2 0 800] ------- [0:0 1:0 30 2] [42] 1 0
s 52.003126562 _2_ MAC  --- 0 ACK 38 [0 0 0 0] 
r 52.003431083 _0_ MAC  --- 0 ACK 38 [0 0 0 0] 
s 52.004000562 _2_ MAC  --- 0 RTS 44 [b7e 1 2 0] 
r 52.004353100 _1_ MAC  --- 0 RTS 44 [b7e 1 2 0] 
s 52.004363100 _1_ MAC  --- 0 CTS 38 [a44 2 0 0] 
r 52.004667638 _2_ MAC  --- 0 CTS 38 [a44 2 0 0] 
s 52.004677638 _2_ MAC  --- 42 cbr 288 [13a 1 2 800] ------- [0:0 1:0 29 1] [42] 1 0
r 52.006982176 _1_ MAC  --- 42 cbr 230 [13a 1 2 800] ------- [0:0 1:0 29 1] [42] 2 0
s 52.006992176 _1_ MAC  --- 0 ACK 38 [0 2 0 0] 
r 52.007296714 _2_ MAC  --- 0 ACK 38 [0 2 0 0] 
s 53.000095000 _0_ MAC  --- 0 RTS 44 [b7e 2 0 0] 
r 53.000447512 _2_ MAC  --- 0 RTS 44 [b7e 2 0 0] 
s 53.000457512 _2_ MAC  --- 0 CTS 38 [a44 0 0 0] 
r 53.000762023 _0_ MAC  --- 0 CTS 38 [a44 0 0 0] 
s 53.000772023 _0_ MAC  --- 43 cbr 288 [13a 2 0 800] ------- [0:0 1:0 30 2] [43] 0 0
r 53.003076535 _2_ MAC  --- 43 cbr 230 [13a 2 0 800] ------- [0:0 1:0 30 2] [43] 1 0
s 53.003086535 _2_ MAC  --- 0 ACK 38 [0 0 0 0] 
r 53.003391047 _0_ MAC  --- 0 ACK 38 [0 0 0 0] 
s 53.003460535 _2_ MAC  --- 0 RTS 44 [b7e 1 2 0] 
r 53.003813057 _1_ MAC  --- 0 RTS 44 [b7e 1 2 0] 
s 53.003823057 _1_ MAC  --- 0 CTS 38 [a44 2 0 0] 
r 53.004127579 _2_ MAC  --- 0 CTS 38 [a44 2 0 0] 
s 53.004137579 _2_ MAC  --- 43 cbr 288 [13a 1 2 800] ------- [0:0 1:0 29 1] [43] 1 0
r 53.006442101 _1_ MAC  --- 43 cbr 230 [13a 1 2 800] ------- [0:0 1:0 29 1] [43] 2 0
s 53.006452101 _1_ MAC  --- 0 ACK 38 [0 2 0 0] 
r 53.006756623 _2_ MAC  --- 0 ACK 38 [0 2 0 0] 
s 54.000095000 _0_ MAC  --- 0 RTS 44 [b7e 2 0 0] 
r 54.000447503 _2_ MAC  --- 0 RTS 44 [b7e 2 0 0] 
s 54.000457503 _2_ MAC  --- 0 CTS 38 [a44 0 0 0] 
r 54.000762005 _0_ MAC  --- 0 CTS 38 [a44 0 0 0] 
s 54.000772005 _0_ MAC  --- 44 cbr 288 [13a 2 0 800] ------- [0:0 1:0 30 2] [44] 0 0
r 54.003076508 _2_ MAC  --- 44 cbr 230 [13a 2 0 800] ------- [0:0 1:0 30 2] [44] 1 0
s 54.003086508 _2_ MAC  --- 0 ACK 38 [0 0 0 0] 
r 54.003391010 _0_ MAC  --- 0 ACK 38 [0 0 0 0] 
s 54.003460508 _2_ MAC  --- 0 RTS 44 [b7e 1 2 0] 
r 54.003813014 _1_ MAC  --- 0 RTS 44 [b7e 1 2 0] 
s 54.003823014 _1_ MAC  --- 0 CTS 38 [a44 2 0 0] 
r 54.004127520 _2_ MAC  --- 0 CTS 38 [a44 2 0 0] 
s 54.004137520 _2_ MAC  --- 44 cbr 288 [13a 1 2 800] ------- [0:0 1:0 29 1] [44] 1 0
r 54.006442026 _1_ MAC  --- 44 cbr 230 [13a 1 2 800] ------- [0:0 1:0 29 1] [44] 2 0
s 54.006452026 _1_ MAC  --- 0 ACK 38 [0 2 0 0] 
r 54.006756532 _2_ MAC  --- 0 ACK 38 [0 2 0 0] 
s 55.000455000 _0_ MAC  --- 0 RTS 44 [b7e 2 0 0] 
r 55.000807494 _2_ MAC  --- 0 RTS 44 [b7e 2 0 0] 
s 55.000817494 _2_ MAC  --- 0 CTS 38 [a44 0 0 0] 
r 55.001121987 _0_ MAC  --- 0 CTS 38 [a44 0 0 0] 
s 55.001131987 _0_ MAC  --- 45 cbr 288 [13a 2 0 800] ------- [0:0 1:0 30 2] [45] 0 0
r 55.003436481 _2_ MAC  --- 45 cbr 230 [13a 2 0 800] ------- [0:0 1:0 30 2] [45] 1 0
s 55.003446481 _2_ MAC  --- 0 ACK 38 [0 0 0 0] 
r 55.003750974 _0_ MAC  --- 0 ACK 38 [0 0 0 0] 
s 55.004280481 _2_ MAC  --- 0 RTS 44 [b7e 1 2 0] 
r 55.004632971 _1_ MAC  --- 0 RTS 44 [b7e 1 2 0] 
s 55.004642971 _1_ MAC  --- 0 CTS 38 [a44 2 0 0] 
r 55.004947461 _2_ MAC  --- 0 CTS 38 [a44 2 0 0] 
s 55.004957461 _2_ MAC  --- 45 cbr 288 [13a 1 2 800] ------- [0:0 1:0 29 1] [45] 1 0
r 55.007261951 _1_ MAC  --- 45 cbr 230 [13a 1 2 800] ------- [0:0 1:0 29 1] [45] 2 0
s 55.007271951 _1_ MAC  --- 0 ACK 38 [0 2 0 0] 
r 55.007576441 _2_ MAC  --- 0 ACK 38 [0 2 0 0] 
s 56.000615000 _0_ MAC  --- 0 RTS 44 [b7e 2 0 0] 
r 56.000967485 _2_ MAC  --- 0 RTS 44 [b7e 2 0 0] 
s 56.000977485 _2_ MAC  --- 0 CTS 38 [a44 0 0 0] 
r 56.001281969 _0_ MAC  --- 0 CTS 38 [a44 0 0 0] 
s 56.001291969 _0_ MAC  --- 46 cbr 288 [13a 2 0 800] ------- [0:0 1:0 30 2] [46] 0 0